TITLE = "Grid: prim/mr_v4.2_no_tail_wing_v2_wing_set_0.17_targ_coarse_lvl_2.grid, Pointdata: sol/sol.pval.unsteady_i=900_t=1.8000000e-01" 
VARIABLES = "Y", fx, fy, fz, mx, my, mz
#
# Force distributions of the components 
#
ZONE T="DISTR      Wing", F=POINT 
1.923936e+00   0.000000e+00   0.000000e+00	0.000000e+00   0.000000e+00   0.000000e+00   0.000000e+00
1.963488e+00   2.326102e+03   -1.609098e+03	6.807274e+04   1.342458e+05   7.904896e+04   -3.111179e+03
2.003041e+00   2.228354e+03   -1.581953e+03	6.825230e+04   1.373017e+05   7.901714e+04   -3.091064e+03
2.042593e+00   2.089679e+03   -1.571934e+03	6.849400e+04   1.404973e+05   7.908361e+04   -3.007502e+03
2.082145e+00   1.964892e+03   -1.565326e+03	6.872617e+04   1.436922e+05   7.907338e+04   -2.905840e+03
2.121697e+00   1.839819e+03   -1.567895e+03	6.886217e+04   1.467057e+05   7.900095e+04   -2.787045e+03
2.161249e+00   1.754007e+03   -1.567562e+03	6.898673e+04   1.497044e+05   7.887344e+04   -2.732297e+03
2.200801e+00   1.685784e+03   -1.569056e+03	6.904431e+04   1.525637e+05   7.861556e+04   -2.690603e+03
2.240353e+00   1.558065e+03   -1.568443e+03	6.908237e+04   1.553855e+05   7.841557e+04   -2.551042e+03
2.279905e+00   1.474531e+03   -1.557897e+03	6.908285e+04   1.581230e+05   7.821996e+04   -2.470715e+03
2.319458e+00   1.372481e+03   -1.553387e+03	6.909452e+04   1.608858e+05   7.798996e+04   -2.366671e+03
2.359010e+00   1.321582e+03   -1.553387e+03	6.907206e+04   1.635715e+05   7.765392e+04   -2.335410e+03
2.398562e+00   1.264263e+03   -1.557501e+03	6.910485e+04   1.663857e+05   7.743632e+04   -2.271488e+03
2.438114e+00   1.274028e+03   -1.562582e+03	6.906640e+04   1.690283e+05   7.718866e+04   -2.353451e+03
2.477666e+00   1.188609e+03   -1.559046e+03	6.899578e+04   1.715898e+05   7.690402e+04   -2.242631e+03
2.517218e+00   1.138275e+03   -1.574640e+03	6.898902e+04   1.743076e+05   7.667940e+04   -2.143874e+03
2.556770e+00   1.033660e+03   -1.572279e+03	6.896634e+04   1.769819e+05   7.655520e+04   -1.956257e+03
2.596322e+00   9.655999e+02   -1.577308e+03	6.895525e+04   1.796833e+05   7.629965e+04   -1.863303e+03
2.635875e+00   9.106295e+02   -1.576272e+03	6.892014e+04   1.823213e+05   7.608015e+04   -1.777236e+03
2.675427e+00   8.907982e+02   -1.600347e+03	6.889705e+04   1.849917e+05   7.586070e+04   -1.738071e+03
2.714979e+00   8.416728e+02   -1.608764e+03	6.884689e+04   1.875860e+05   7.557623e+04   -1.633437e+03
2.754531e+00   8.038682e+02   -1.615573e+03	6.878284e+04   1.901366e+05   7.524106e+04   -1.577506e+03
2.794083e+00   7.590135e+02   -1.612334e+03	6.874395e+04   1.927491e+05   7.501079e+04   -1.518773e+03
2.833635e+00   7.375502e+02   -1.620778e+03	6.874092e+04   1.954644e+05   7.484050e+04   -1.481146e+03
2.873187e+00   6.914266e+02   -1.642232e+03	6.867476e+04   1.979999e+05   7.446582e+04   -1.356883e+03
2.912739e+00   6.617335e+02   -1.646675e+03	6.859519e+04   2.004880e+05   7.426100e+04   -1.289472e+03
2.952292e+00   6.163633e+02   -1.658182e+03	6.856611e+04   2.031191e+05   7.408720e+04   -1.187885e+03
2.991844e+00   5.599503e+02   -1.662765e+03	6.853295e+04   2.057360e+05   7.377710e+04   -1.060561e+03
3.031396e+00   5.360103e+02   -1.669531e+03	6.844709e+04   2.081903e+05   7.342234e+04   -1.004538e+03
3.070948e+00   4.927342e+02   -1.678902e+03	6.839577e+04   2.107445e+05   7.321193e+04   -9.041539e+02
3.110500e+00   4.728571e+02   -1.691300e+03	6.841258e+04   2.135061e+05   7.301428e+04   -8.536563e+02
3.150052e+00   4.077643e+02   -1.703626e+03	6.838110e+04   2.161174e+05   7.280251e+04   -6.535196e+02
3.189604e+00   3.987964e+02   -1.722650e+03	6.829637e+04   2.185593e+05   7.251147e+04   -6.151375e+02
3.229156e+00   3.929603e+02   -1.730831e+03	6.826042e+04   2.211477e+05   7.218924e+04   -6.196413e+02
3.268709e+00   3.730140e+02   -1.741844e+03	6.821267e+04   2.236952e+05   7.187991e+04   -5.651365e+02
3.308261e+00   3.230599e+02   -1.749884e+03	6.818267e+04   2.262994e+05   7.165284e+04   -4.072656e+02
3.347813e+00   2.937876e+02   -1.755759e+03	6.810808e+04   2.287505e+05   7.127198e+04   -3.305848e+02
3.387365e+00   2.640342e+02   -1.780138e+03	6.803382e+04   2.312004e+05   7.096850e+04   -2.185794e+02
3.426917e+00   2.557932e+02   -1.786788e+03	6.803821e+04   2.339103e+05   7.071043e+04   -2.084356e+02
3.466469e+00   2.287022e+02   -1.794465e+03	6.801085e+04   2.365104e+05   7.052378e+04   -1.039130e+02
3.506021e+00   1.934703e+02   -1.809556e+03	6.795136e+04   2.389988e+05   7.023028e+04   1.887448e+01
3.545574e+00   1.800630e+02   -1.814907e+03	6.787799e+04   2.414299e+05   6.984398e+04   4.460627e+01
3.585126e+00   1.798507e+02   -1.838324e+03	6.784296e+04   2.439967e+05   6.953512e+04   7.383417e+01
3.624678e+00   1.485888e+02   -1.851640e+03	6.776264e+04   2.463940e+05   6.920732e+04   1.999743e+02
3.664230e+00   1.239117e+02   -1.858749e+03	6.768036e+04   2.487770e+05   6.879604e+04   2.854028e+02
3.703782e+00   1.024036e+02   -1.873387e+03	6.765009e+04   2.513490e+05   6.851241e+04   3.526234e+02
3.743334e+00   7.718570e+01   -1.872618e+03	6.763605e+04   2.539733e+05   6.824877e+04   4.377185e+02
3.782886e+00   3.077291e+01   -1.889333e+03	6.758410e+04   2.564595e+05   6.799723e+04   6.181317e+02
3.822438e+00   1.981226e+01   -1.901892e+03	6.756261e+04   2.590560e+05   6.766400e+04   6.709690e+02
3.861991e+00   -1.143253e+01   -1.911660e+03	6.750501e+04   2.615105e+05   6.742313e+04   8.021984e+02
3.901543e+00   -2.433291e+01   -1.921017e+03	6.739872e+04   2.637721e+05   6.697018e+04   8.430998e+02
3.941095e+00   -2.155231e+01   -1.931976e+03	6.735191e+04   2.662591e+05   6.673471e+04   8.431788e+02
3.980647e+00   -3.640059e+01   -1.944118e+03	6.728611e+04   2.686663e+05   6.635249e+04   9.320658e+02
4.020199e+00   -1.657174e+01   -1.953332e+03	6.720759e+04   2.710164e+05   6.598158e+04   8.488793e+02
4.059751e+00   -5.442431e+01   -1.975346e+03	6.717442e+04   2.735492e+05   6.561137e+04   1.032701e+03
4.099303e+00   -6.314824e+01   -1.983912e+03	6.713077e+04   2.760322e+05   6.523378e+04   1.067550e+03
4.138855e+00   -6.313426e+01   -1.998578e+03	6.709413e+04   2.785429e+05   6.499219e+04   1.094591e+03
4.178408e+00   -6.099007e+01   -2.004286e+03	6.700275e+04   2.808176e+05   6.456550e+04   1.076608e+03
4.217960e+00   -9.555568e+01   -2.004591e+03	6.690331e+04   2.830528e+05   6.417979e+04   1.228128e+03
4.257512e+00   -1.213926e+02   -2.028199e+03	6.688182e+04   2.856168e+05   6.386849e+04   1.362279e+03
4.297064e+00   -1.522037e+02   -2.036614e+03	6.684437e+04   2.881073e+05   6.357020e+04   1.486390e+03
4.336616e+00   -1.787451e+02   -2.044911e+03	6.679984e+04   2.905616e+05   6.322607e+04   1.602998e+03
4.376168e+00   -1.815639e+02   -2.058215e+03	6.673093e+04   2.929089e+05   6.284464e+04   1.640020e+03
4.415720e+00   -2.093749e+02   -2.068811e+03	6.665220e+04   2.952072e+05   6.251791e+04   1.777221e+03
4.455272e+00   -2.343574e+02   -2.077546e+03	6.655995e+04   2.974380e+05   6.220187e+04   1.895201e+03
4.494825e+00   -2.267693e+02   -2.084779e+03	6.654220e+04   2.999954e+05   6.185701e+04   1.883458e+03
4.534377e+00   -2.728267e+02   -2.094874e+03	6.650251e+04   3.024538e+05   6.155956e+04   2.086852e+03
4.573929e+00   -2.819758e+02   -2.099732e+03	6.645385e+04   3.048657e+05   6.118264e+04   2.153522e+03
4.613481e+00   -2.865980e+02   -2.109359e+03	6.643025e+04   3.073903e+05   6.091041e+04   2.172305e+03
4.653033e+00   -2.887850e+02   -2.122419e+03	6.634804e+04   3.096432e+05   6.060811e+04   2.211841e+03
4.692585e+00   -3.186175e+02   -2.118535e+03	6.624169e+04   3.117707e+05   6.010923e+04   2.332777e+03
4.732137e+00   -2.904505e+02   -2.133836e+03	6.617588e+04   3.140870e+05   5.972992e+04   2.251042e+03
4.771689e+00   -3.151796e+02   -2.145130e+03	6.608091e+04   3.162580e+05   5.927720e+04   2.373558e+03
4.811242e+00   -3.360365e+02   -2.150713e+03	6.602748e+04   3.186188e+05   5.887051e+04   2.472894e+03
4.850794e+00   -3.202132e+02   -2.165642e+03	6.595322e+04   3.208768e+05   5.847869e+04   2.425634e+03
4.890346e+00   -3.525968e+02   -2.166485e+03	6.588608e+04   3.231622e+05   5.813415e+04   2.597730e+03
4.929898e+00   -3.554923e+02   -2.183240e+03	6.584981e+04   3.255974e+05   5.784639e+04   2.642946e+03
4.969450e+00   -3.584932e+02   -2.184035e+03	6.579426e+04   3.279286e+05   5.750559e+04   2.668661e+03
5.009002e+00   -3.673375e+02   -2.197183e+03	6.575548e+04   3.303455e+05   5.705211e+04   2.727009e+03
5.048554e+00   -3.890182e+02   -2.195790e+03	6.570560e+04   3.326963e+05   5.663294e+04   2.829529e+03
5.088106e+00   -3.807439e+02   -2.201885e+03	6.565442e+04   3.350399e+05   5.625093e+04   2.801284e+03
5.127659e+00   -4.044986e+02   -2.207500e+03	6.557978e+04   3.372603e+05   5.590389e+04   2.937457e+03
5.167211e+00   -4.170588e+02   -2.221711e+03	6.553706e+04   3.396401e+05   5.553605e+04   3.024240e+03
5.206763e+00   -4.245360e+02   -2.226204e+03	6.545461e+04   3.418085e+05   5.514161e+04   3.095183e+03
5.246315e+00   -4.337163e+02   -2.236390e+03	6.538407e+04   3.440333e+05   5.470682e+04   3.147057e+03
5.285867e+00   -4.460407e+02   -2.238885e+03	6.532997e+04   3.463378e+05   5.432381e+04   3.221684e+03
5.325419e+00   -4.521384e+02   -2.240096e+03	6.524511e+04   3.484730e+05   5.399784e+04   3.270883e+03
5.364971e+00   -4.433412e+02   -2.241519e+03	6.515114e+04   3.505533e+05   5.359404e+04   3.245367e+03
5.404524e+00   -4.679093e+02   -2.250726e+03	6.504376e+04   3.525581e+05   5.303764e+04   3.384820e+03
5.444076e+00   -4.595692e+02   -2.256494e+03	6.497668e+04   3.547705e+05   5.256454e+04   3.359844e+03
5.483628e+00   -4.326452e+02   -2.269428e+03	6.490060e+04   3.569300e+05   5.220365e+04   3.260336e+03
5.523180e+00   -4.445933e+02   -2.267539e+03	6.488161e+04   3.593945e+05   5.184814e+04   3.310279e+03
5.562732e+00   -4.606198e+02   -2.265998e+03	6.478145e+04   3.614059e+05   5.138085e+04   3.400615e+03
5.602284e+00   -4.962375e+02   -2.269389e+03	6.469021e+04   3.634623e+05   5.102104e+04   3.617670e+03
5.641836e+00   -5.054779e+02   -2.268676e+03	6.465334e+04   3.658165e+05   5.060893e+04   3.679643e+03
5.681388e+00   -4.981535e+02   -2.272454e+03	6.457829e+04   3.679520e+05   5.019032e+04   3.646030e+03
5.720941e+00   -5.092294e+02   -2.280106e+03	6.448956e+04   3.700055e+05   4.976848e+04   3.731647e+03
5.760493e+00   -5.134025e+02   -2.279960e+03	6.442317e+04   3.721764e+05   4.939077e+04   3.769681e+03
5.800045e+00   -5.318274e+02   -2.279799e+03	6.436948e+04   3.744159e+05   4.895171e+04   3.885870e+03
5.839597e+00   -5.298536e+02   -2.281046e+03	6.428473e+04   3.764705e+05   4.855787e+04   3.902065e+03
5.879149e+00   -5.300398e+02   -2.280014e+03	6.419859e+04   3.785104e+05   4.822406e+04   3.907397e+03
5.918701e+00   -5.112382e+02   -2.286581e+03	6.414972e+04   3.807650e+05   4.782816e+04   3.817606e+03
5.958253e+00   -5.320963e+02   -2.279169e+03	6.410575e+04   3.830413e+05   4.745613e+04   3.946467e+03
5.997805e+00   -5.511420e+02   -2.281123e+03	6.403440e+04   3.851532e+05   4.699632e+04   4.064540e+03
6.037358e+00   -5.435039e+02   -2.289850e+03	6.395227e+04   3.871970e+05   4.650190e+04   4.049165e+03
6.076910e+00   -5.319839e+02   -2.281873e+03	6.383060e+04   3.889871e+05   4.598121e+04   3.987827e+03
6.116462e+00   -5.253735e+02   -2.278820e+03	6.376405e+04   3.911068e+05   4.558371e+04   3.955725e+03
6.156014e+00   -5.477401e+02   -2.279652e+03	6.369988e+04   3.932373e+05   4.511309e+04   4.084771e+03
6.195566e+00   -5.457563e+02   -2.281725e+03	6.365939e+04   3.955102e+05   4.468685e+04   4.105756e+03
6.235118e+00   -5.411172e+02   -2.273148e+03	6.358005e+04   3.975325e+05   4.435056e+04   4.075356e+03
6.274670e+00   -5.212582e+02   -2.305497e+03	6.352847e+04   3.997401e+05   4.393151e+04   4.027986e+03
6.314222e+00   -5.414292e+02   -2.449298e+03	6.348932e+04   4.020715e+05   4.351481e+04   4.330630e+03
6.353775e+00   -5.610215e+02   -2.473127e+03	6.340023e+04   4.040312e+05   4.304096e+04   4.505624e+03
6.393327e+00   -5.887526e+02   -2.473626e+03	6.332373e+04   4.060548e+05   4.253195e+04   4.681460e+03
6.432879e+00   -5.996472e+02   -2.466116e+03	6.329462e+04   4.083717e+05   4.210416e+04   4.759637e+03
6.472431e+00   -5.963510e+02   -2.467219e+03	6.324041e+04   4.105282e+05   4.160788e+04   4.755653e+03
6.511983e+00   -6.167599e+02   -2.467217e+03	6.326030e+04   4.131631e+05   4.112637e+04   4.896448e+03
6.551535e+00   -6.266928e+02   -2.452725e+03	6.320383e+04   4.152919e+05   4.066513e+04   4.971723e+03
6.591087e+00   -6.341038e+02   -2.465236e+03	6.312268e+04   4.172670e+05   4.005157e+04   5.039752e+03
6.630639e+00   -6.452974e+02   -2.453738e+03	6.310225e+04   4.196265e+05   3.963048e+04   5.121253e+03
6.670192e+00   -6.523183e+02   -2.448342e+03	6.303198e+04   4.216552e+05   3.914619e+04   5.163787e+03
6.709744e+00   -6.563769e+02   -2.451972e+03	6.295843e+04   4.236597e+05   3.870573e+04   5.219147e+03
6.749296e+00   -6.757207e+02   -2.444170e+03	6.292226e+04   4.259067e+05   3.813378e+04   5.348690e+03
6.788848e+00   -6.856461e+02   -2.441665e+03	6.287916e+04   4.281053e+05   3.766025e+04   5.419543e+03
6.828400e+00   -6.618550e+02   -2.446308e+03	6.284459e+04   4.303612e+05   3.721954e+04   5.292541e+03
6.867952e+00   -7.109143e+02   -2.431882e+03	6.283528e+04   4.327812e+05   3.671711e+04   5.619953e+03
6.907504e+00   -7.013046e+02   -2.429166e+03	6.277843e+04   4.348751e+05   3.627110e+04   5.566054e+03
6.947056e+00   -7.156172e+02   -2.430029e+03	6.272109e+04   4.369649e+05   3.574880e+04   5.677113e+03
6.986609e+00   -7.253277e+02   -2.428401e+03	6.268771e+04   4.392147e+05   3.540685e+04   5.771508e+03
7.026161e+00   -7.239784e+02   -2.429416e+03	6.266441e+04   4.415342e+05   3.501997e+04   5.779003e+03
7.065713e+00   -7.256556e+02   -2.424880e+03	6.261129e+04   4.436390e+05   3.446548e+04   5.805031e+03
7.105265e+00   -7.437290e+02   -2.418413e+03	6.253132e+04   4.455481e+05   3.393127e+04   5.944626e+03
7.144817e+00   -7.515641e+02   -2.418700e+03	6.250372e+04   4.478288e+05   3.345955e+04   6.011701e+03
7.184369e+00   -7.725877e+02   -2.413982e+03	6.251436e+04   4.503780e+05   3.296304e+04   6.169323e+03
7.223921e+00   -7.713173e+02   -2.416412e+03	6.243243e+04   4.522646e+05   3.243144e+04   6.172480e+03
7.263474e+00   -7.744960e+02   -2.409475e+03	6.236831e+04   4.542676e+05   3.195713e+04   6.213123e+03
7.303026e+00   -7.754986e+02   -2.403488e+03	6.230865e+04   4.562997e+05   3.141666e+04   6.232004e+03
7.342578e+00   -7.838993e+02   -2.400604e+03	6.225384e+04   4.583647e+05   3.092461e+04   6.306098e+03
7.382130e+00   -7.939500e+02   -2.398467e+03	6.220365e+04   4.604589e+05   3.045142e+04   6.405339e+03
7.421682e+00   -8.002832e+02   -2.401855e+03	6.214703e+04   4.625044e+05   2.995153e+04   6.468680e+03
7.461234e+00   -7.905784e+02   -2.403131e+03	6.209167e+04   4.645531e+05   2.946134e+04   6.426301e+03
7.500786e+00   -7.995137e+02   -2.389084e+03	6.208336e+04   4.669429e+05   2.897277e+04   6.489348e+03
7.540338e+00   -8.208055e+02   -2.393059e+03	6.202304e+04   4.689505e+05   2.841426e+04   6.664660e+03
7.579891e+00   -8.165594e+02   -2.391749e+03	6.194741e+04   4.708334e+05   2.795977e+04   6.653602e+03
7.619443e+00   -8.291316e+02   -2.382705e+03	6.189747e+04   4.729022e+05   2.748367e+04   6.744994e+03
7.658995e+00   -8.535523e+02   -2.376567e+03	6.187975e+04   4.752158e+05   2.702038e+04   6.962811e+03
7.698547e+00   -8.478625e+02   -2.379230e+03	6.182135e+04   4.772184e+05   2.651741e+04   6.937698e+03
7.738099e+00   -8.626237e+02   -2.376320e+03	6.179524e+04   4.794649e+05   2.606279e+04   7.067131e+03
7.777651e+00   -8.668095e+02   -2.370761e+03	6.178552e+04   4.818337e+05   2.560705e+04   7.112236e+03
7.817203e+00   -8.484223e+02   -2.376272e+03	6.163491e+04   4.831063e+05   2.500966e+04   6.999947e+03
7.856755e+00   -8.483605e+02   -2.369668e+03	6.163013e+04   4.855067e+05   2.456105e+04   7.017656e+03
7.896308e+00   -8.667293e+02   -2.369799e+03	6.159277e+04   4.876532e+05   2.407032e+04   7.174983e+03
7.935860e+00   -8.603156e+02   -2.362174e+03	6.149912e+04   4.893454e+05   2.348365e+04   7.143017e+03
7.975412e+00   -8.744965e+02   -2.361954e+03	6.144900e+04   4.913824e+05   2.299126e+04   7.278471e+03
8.014964e+00   -8.856215e+02   -2.359138e+03	6.143419e+04   4.936969e+05   2.249801e+04   7.385158e+03
8.054516e+00   -8.577554e+02   -2.365189e+03	6.136484e+04   4.955734e+05   2.194110e+04   7.183006e+03
8.094068e+00   -8.472750e+02   -2.361358e+03	6.137483e+04   4.980819e+05   2.144285e+04   7.113720e+03
8.133620e+00   -8.505634e+02   -2.358196e+03	6.128437e+04   4.997761e+05   2.096965e+04   7.163556e+03
8.173172e+00   -8.719208e+02   -2.360643e+03	6.119788e+04   5.014993e+05   2.053198e+04   7.351777e+03
8.212725e+00   -9.073035e+02   -2.345903e+03	6.114862e+04   5.035116e+05   2.005260e+04   7.645931e+03
8.252277e+00   -9.102094e+02   -2.334468e+03	6.108212e+04   5.053786e+05   1.959304e+04   7.703090e+03
8.291829e+00   -8.960722e+02   -2.349575e+03	6.105031e+04   5.075422e+05   1.910347e+04   7.609855e+03
8.331381e+00   -9.003036e+02   -2.344472e+03	6.102111e+04   5.097152e+05   1.864680e+04   7.653416e+03
8.370933e+00   -9.112464e+02   -2.334159e+03	6.099373e+04   5.118975e+05   1.807922e+04   7.767072e+03
8.410485e+00   -9.139444e+02   -2.332935e+03	6.093402e+04   5.138110e+05   1.762061e+04   7.805821e+03
8.450037e+00   -9.207902e+02   -2.334474e+03	6.086835e+04   5.156710e+05   1.717823e+04   7.883545e+03
8.489589e+00   -9.065022e+02   -2.334738e+03	6.079716e+04   5.174771e+05   1.665656e+04   7.790215e+03
8.529142e+00   -9.259584e+02   -2.326993e+03	6.075481e+04   5.195203e+05   1.619857e+04   7.979814e+03
8.568694e+00   -9.214060e+02   -2.328463e+03	6.070458e+04   5.214978e+05   1.567537e+04   7.964262e+03
8.608246e+00   -9.270370e+02   -2.324394e+03	6.064933e+04   5.234247e+05   1.515895e+04   8.016739e+03
8.647798e+00   -9.156984e+02   -2.320985e+03	6.059244e+04   5.253320e+05   1.467696e+04   7.955439e+03
8.687350e+00   -9.178224e+02   -2.325775e+03	6.050670e+04   5.269907e+05   1.414422e+04   8.004866e+03
8.726902e+00   -9.393897e+02   -2.317585e+03	6.049449e+04   5.292771e+05   1.368716e+04   8.201541e+03
8.766454e+00   -9.317367e+02   -2.310266e+03	6.040408e+04   5.308764e+05   1.318662e+04   8.147317e+03
8.806006e+00   -9.492585e+02   -2.306570e+03	6.038479e+04   5.330977e+05   1.272756e+04   8.315862e+03
8.845559e+00   -9.631062e+02   -2.306823e+03	6.031127e+04   5.348396e+05   1.228472e+04   8.471328e+03
8.885111e+00   -9.680864e+02   -2.298142e+03	6.024357e+04   5.366227e+05   1.180354e+04   8.532304e+03
8.924663e+00   -9.595490e+02   -2.303924e+03	6.017519e+04   5.384018e+05   1.130168e+04   8.488897e+03
8.964215e+00   -9.602530e+02   -2.302406e+03	6.010762e+04   5.401784e+05   1.075315e+04   8.512548e+03
9.003767e+00   -9.695520e+02   -2.294215e+03	6.005819e+04   5.421109e+05   1.026328e+04   8.608621e+03
9.043319e+00   -9.598960e+02   -2.294543e+03	6.001248e+04   5.440761e+05   9.794063e+03   8.553919e+03
9.082871e+00   -9.664915e+02   -2.290901e+03	5.996291e+04   5.460005e+05   9.348914e+03   8.631546e+03
9.122424e+00   -9.711561e+02   -2.290470e+03	5.989084e+04   5.477189e+05   8.875056e+03   8.697535e+03
9.161976e+00   -9.814032e+02   -2.284467e+03	5.982060e+04   5.494451e+05   8.350744e+03   8.816936e+03
9.201528e+00   -9.726511e+02   -2.289936e+03	5.976359e+04   5.512924e+05   7.830774e+03   8.770118e+03
9.241080e+00   -9.672768e+02   -2.286558e+03	5.970736e+04   5.531376e+05   7.366496e+03   8.729683e+03
9.280632e+00   -9.584108e+02   -2.280198e+03	5.960139e+04   5.545167e+05   6.903009e+03   8.675290e+03
9.320184e+00   -9.635708e+02   -2.274766e+03	5.953793e+04   5.562828e+05   6.370010e+03   8.740067e+03
9.359736e+00   -9.930505e+02   -2.268496e+03	5.948499e+04   5.581431e+05   5.935743e+03   9.036650e+03
9.399288e+00   -9.932401e+02   -2.267215e+03	5.939276e+04   5.596319e+05   5.491695e+03   9.055530e+03
9.438841e+00   -9.966182e+02   -2.259972e+03	5.936143e+04   5.616849e+05   4.952566e+03   9.123555e+03
9.478393e+00   -9.965613e+02   -2.263304e+03	5.933864e+04   5.638217e+05   4.459080e+03   9.131773e+03
9.517945e+00   -9.752496e+02   -2.268563e+03	5.925225e+04   5.653534e+05   3.932074e+03   8.958904e+03
9.557497e+00   -9.984933e+02   -2.250974e+03	5.921309e+04   5.673158e+05   3.435258e+03   9.190784e+03
9.597049e+00   -1.012079e+03   -2.243726e+03	5.911909e+04   5.687558e+05   2.970066e+03   9.349930e+03
9.636601e+00   -1.019070e+03   -2.249989e+03	5.908711e+04   5.707937e+05   2.455724e+03   9.444288e+03
9.676153e+00   -9.932301e+02   -2.258808e+03	5.902597e+04   5.725469e+05   1.963408e+03   9.224011e+03
9.715705e+00   -9.751391e+02   -2.254010e+03	5.897065e+04   5.743441e+05   1.574196e+03   9.079998e+03
9.755258e+00   -9.773268e+02   -2.246552e+03	5.888547e+04   5.758443e+05   1.082828e+03   9.116363e+03
9.794810e+00   -9.905525e+02   -2.252517e+03	5.880535e+04   5.773966e+05   6.173018e+02   9.283412e+03
9.834362e+00   -9.976232e+02   -2.248656e+03	5.874607e+04   5.791407e+05   1.325839e+02   9.364608e+03
9.873914e+00   -1.006796e+03   -2.227914e+03	5.867272e+04   5.807315e+05   -3.794090e+02   9.473527e+03
9.913466e+00   -1.013572e+03   -2.237183e+03	5.860564e+04   5.823974e+05   -8.843218e+02   9.567930e+03
9.953018e+00   -1.014449e+03   -2.232588e+03	5.856846e+04   5.843456e+05   -1.336322e+03   9.600513e+03
9.992570e+00   -1.022647e+03   -2.229020e+03	5.851200e+04   5.860995e+05   -1.809774e+03   9.701208e+03
1.003212e+01   -1.024207e+03   -2.222434e+03	5.843091e+04   5.875997e+05   -2.235827e+03   9.738239e+03
1.007167e+01   -1.034727e+03   -2.215727e+03	5.833384e+04   5.889337e+05   -2.776745e+03   9.866137e+03
1.011123e+01   -1.015538e+03   -2.222349e+03	5.827764e+04   5.906794e+05   -3.275582e+03   9.705245e+03
1.015078e+01   -1.001595e+03   -2.210367e+03	5.819726e+04   5.921638e+05   -3.657446e+03   9.593780e+03
1.019033e+01   -9.966874e+02   -2.229337e+03	5.815523e+04   5.940535e+05   -4.183057e+03   9.566891e+03
1.022988e+01   -1.015106e+03   -2.215818e+03	5.810038e+04   5.957874e+05   -4.689830e+03   9.768468e+03
1.026944e+01   -9.976102e+02   -2.213538e+03	5.803046e+04   5.973692e+05   -5.110059e+03   9.632288e+03
1.030899e+01   -1.012516e+03   -2.202433e+03	5.794339e+04   5.987645e+05   -5.614647e+03   9.800553e+03
1.034854e+01   -1.004148e+03   -2.212833e+03	5.786388e+04   6.002434e+05   -6.070647e+03   9.729077e+03
1.038809e+01   -1.006924e+03   -2.201381e+03	5.777485e+04   6.016033e+05   -6.529669e+03   9.783824e+03
1.042764e+01   -1.025113e+03   -2.196678e+03	5.775698e+04   6.037023e+05   -6.989318e+03   1.000088e+04
1.046720e+01   -1.017274e+03   -2.197022e+03	5.771503e+04   6.055518e+05   -7.415576e+03   9.945833e+03
1.050675e+01   -1.029622e+03   -2.190558e+03	5.763986e+04   6.070441e+05   -7.938130e+03   1.009974e+04
1.054630e+01   -1.037235e+03   -2.188515e+03	5.755806e+04   6.084640e+05   -8.426233e+03   1.020096e+04
1.058585e+01   -1.020568e+03   -2.191016e+03	5.746372e+04   6.097474e+05   -8.858249e+03   1.004622e+04
1.062540e+01   -1.018563e+03   -2.185468e+03	5.741072e+04   6.114562e+05   -9.355088e+03   1.005849e+04
1.066496e+01   -1.007822e+03   -2.187442e+03	5.734415e+04   6.130217e+05   -9.818163e+03   9.969585e+03
1.070451e+01   -1.001768e+03   -2.185100e+03	5.724238e+04   6.142023e+05   -1.028993e+04   9.926332e+03
1.074406e+01   -1.008277e+03   -2.178806e+03	5.712165e+04   6.151692e+05   -1.073140e+04   1.002356e+04
1.078361e+01   -1.023803e+03   -2.170886e+03	5.704036e+04   6.165509e+05   -1.115756e+04   1.021398e+04
1.082316e+01   -1.016281e+03   -2.167386e+03	5.700608e+04   6.184366e+05   -1.164862e+04   1.015249e+04
1.086272e+01   -1.009749e+03   -2.170490e+03	5.695017e+04   6.200892e+05   -1.212999e+04   1.011213e+04
1.090227e+01   -1.037843e+03   -2.168759e+03	5.691213e+04   6.219302e+05   -1.259615e+04   1.043533e+04
1.094182e+01   -1.040598e+03   -2.160997e+03	5.681885e+04   6.231597e+05   -1.298730e+04   1.049517e+04
1.098137e+01   -1.038033e+03   -2.159910e+03	5.675556e+04   6.247138e+05   -1.346486e+04   1.048703e+04
1.102093e+01   -1.031467e+03   -2.153601e+03	5.669236e+04   6.262618e+05   -1.396209e+04   1.044354e+04
1.106048e+01   -1.015658e+03   -2.160560e+03	5.661528e+04   6.276593e+05   -1.441360e+04   1.028816e+04
1.110003e+01   -1.010366e+03   -2.155324e+03	5.652705e+04   6.289198e+05   -1.486938e+04   1.026244e+04
1.113958e+01   -1.014361e+03   -2.147644e+03	5.648772e+04   6.307153e+05   -1.529762e+04   1.032615e+04
1.117913e+01   -1.020921e+03   -2.148518e+03	5.642692e+04   6.322738e+05   -1.578661e+04   1.042449e+04
1.121869e+01   -1.023696e+03   -2.146582e+03	5.635547e+04   6.337061e+05   -1.624287e+04   1.049401e+04
1.125824e+01   -1.029184e+03   -2.143777e+03	5.624832e+04   6.347317e+05   -1.670233e+04   1.057371e+04
1.129779e+01   -1.025619e+03   -2.142899e+03	5.615523e+04   6.359074e+05   -1.717050e+04   1.054663e+04
1.133734e+01   -1.013330e+03   -2.134706e+03	5.605389e+04   6.369774e+05   -1.754893e+04   1.044985e+04
1.137689e+01   -1.037421e+03   -2.129216e+03	5.598544e+04   6.384159e+05   -1.803709e+04   1.073335e+04
1.141645e+01   -1.041979e+03   -2.119977e+03	5.588201e+04   6.394464e+05   -1.842115e+04   1.081913e+04
1.145600e+01   -1.042835e+03   -2.117148e+03	5.575001e+04   6.401463e+05   -1.880212e+04   1.085455e+04
1.149555e+01   -1.007218e+03   -2.126431e+03	5.566322e+04   6.413626e+05   -1.924984e+04   1.048671e+04
1.153510e+01   -1.009050e+03   -2.120041e+03	5.562270e+04   6.430959e+05   -1.974891e+04   1.052341e+04
1.157466e+01   -1.017544e+03   -2.115030e+03	5.550307e+04   6.439113e+05   -2.010297e+04   1.065679e+04
1.161421e+01   -1.027434e+03   -2.110236e+03	5.541076e+04   6.450357e+05   -2.051634e+04   1.078447e+04
1.165376e+01   -1.023021e+03   -2.105392e+03	5.532535e+04   6.462312e+05   -2.093034e+04   1.076478e+04
1.169331e+01   -1.021971e+03   -2.103212e+03	5.528116e+04   6.479050e+05   -2.138359e+04   1.078196e+04
1.173286e+01   -1.007213e+03   -2.100621e+03	5.520872e+04   6.492425e+05   -2.184430e+04   1.063476e+04
1.177242e+01   -1.003313e+03   -2.109012e+03	5.518797e+04   6.511912e+05   -2.230896e+04   1.061102e+04
1.181197e+01   -1.014114e+03   -2.097782e+03	5.513250e+04   6.527149e+05   -2.278895e+04   1.075409e+04
1.185152e+01   -1.002889e+03   -2.105094e+03	5.505067e+04   6.539340e+05   -2.323758e+04   1.064690e+04
1.189107e+01   -9.980721e+02   -2.093707e+03	5.495401e+04   6.549578e+05   -2.370011e+04   1.061666e+04
1.193062e+01   -1.000168e+03   -2.086459e+03	5.479370e+04   6.552185e+05   -2.412316e+04   1.066838e+04
1.197018e+01   -9.977445e+02   -2.087680e+03	5.472856e+04   6.566097e+05   -2.451260e+04   1.066800e+04
1.200973e+01   -1.000915e+03   -2.083717e+03	5.465990e+04   6.579495e+05   -2.488097e+04   1.073244e+04
1.204928e+01   -1.009280e+03   -2.084220e+03	5.459489e+04   6.593327e+05   -2.535795e+04   1.084535e+04
1.208883e+01   -1.009529e+03   -2.071094e+03	5.446878e+04   6.599613e+05   -2.571929e+04   1.089447e+04
1.212839e+01   -9.982836e+02   -2.071041e+03	5.439712e+04   6.612498e+05   -2.614785e+04   1.077758e+04
1.216794e+01   -9.942503e+02   -2.066992e+03	5.431290e+04   6.623773e+05   -2.653412e+04   1.074646e+04
1.220749e+01   -1.001780e+03   -2.070893e+03	5.421660e+04   6.633565e+05   -2.696246e+04   1.085923e+04
1.224704e+01   -1.003656e+03   -2.061948e+03	5.416275e+04   6.648376e+05   -2.734936e+04   1.092309e+04
1.228659e+01   -1.005732e+03   -2.061217e+03	5.407953e+04   6.659606e+05   -2.780859e+04   1.096879e+04
1.232615e+01   -1.001655e+03   -2.055291e+03	5.398388e+04   6.669198e+05   -2.822755e+04   1.094495e+04
1.236570e+01   -1.007012e+03   -2.056384e+03	5.386372e+04   6.675734e+05   -2.858737e+04   1.103786e+04
1.240525e+01   -1.020908e+03   -2.043254e+03	5.378548e+04   6.687272e+05   -2.895700e+04   1.123733e+04
1.244480e+01   -1.009280e+03   -2.040581e+03	5.373936e+04   6.702816e+05   -2.937314e+04   1.112612e+04
1.248435e+01   -1.002868e+03   -2.044062e+03	5.362599e+04   6.709982e+05   -2.976411e+04   1.106649e+04
1.252391e+01   -1.002250e+03   -2.050686e+03	5.353084e+04   6.719358e+05   -3.016794e+04   1.107024e+04
1.256346e+01   -9.986684e+02   -2.034720e+03	5.346550e+04   6.732236e+05   -3.056498e+04   1.106526e+04
1.260301e+01   -1.010199e+03   -2.025908e+03	5.335639e+04   6.739606e+05   -3.094544e+04   1.123153e+04
1.264256e+01   -1.022513e+03   -2.017905e+03	5.330234e+04   6.753852e+05   -3.139061e+04   1.140510e+04
1.268211e+01   -1.020427e+03   -2.019493e+03	5.316436e+04   6.757489e+05   -3.176375e+04   1.141447e+04
1.272167e+01   -9.988110e+02   -2.014982e+03	5.306424e+04   6.765773e+05   -3.215501e+04   1.117642e+04
1.276122e+01   -1.012934e+03   -2.019572e+03	5.294973e+04   6.772226e+05   -3.257968e+04   1.136794e+04
1.280077e+01   -1.004806e+03   -1.998648e+03	5.285217e+04   6.780549e+05   -3.291854e+04   1.130757e+04
1.284032e+01   -1.010042e+03   -2.008428e+03	5.276543e+04   6.790428e+05   -3.328979e+04   1.139421e+04
1.287988e+01   -1.019126e+03   -2.003097e+03	5.269110e+04   6.801722e+05   -3.368443e+04   1.153531e+04
1.291943e+01   -1.005028e+03   -1.991627e+03	5.260038e+04   6.810778e+05   -3.404873e+04   1.138501e+04
1.295898e+01   -1.004177e+03   -1.996098e+03	5.253293e+04   6.822912e+05   -3.448383e+04   1.140182e+04
1.299853e+01   -1.013730e+03   -1.990453e+03	5.244690e+04   6.832502e+05   -3.487737e+04   1.154766e+04
1.303808e+01   -1.020291e+03   -1.978530e+03	5.236024e+04   6.841890e+05   -3.526888e+04   1.166354e+04
1.307764e+01   -1.015233e+03   -1.985122e+03	5.232561e+04   6.858158e+05   -3.569857e+04   1.161827e+04
1.311719e+01   -1.003867e+03   -1.983913e+03	5.222033e+04   6.865061e+05   -3.603806e+04   1.149765e+04
1.315674e+01   -9.982258e+02   -1.977629e+03	5.210004e+04   6.869874e+05   -3.638118e+04   1.144737e+04
1.319629e+01   -9.818535e+02   -1.978106e+03	5.201141e+04   6.878816e+05   -3.672926e+04   1.126611e+04
1.323584e+01   -1.001521e+03   -1.972608e+03	5.192624e+04   6.888110e+05   -3.711497e+04   1.155196e+04
1.327540e+01   -9.920525e+02   -1.970540e+03	5.178604e+04   6.890058e+05   -3.741531e+04   1.145393e+04