TITLE = "Grid: prim/mr_v4.2_no_tail_wing_v2_wing_set_0.17_targ_coarse_lvl_2.grid, Pointdata: sol/sol.pval.unsteady_i=2200_t=4.40000000e-01" 
VARIABLES = "Y", fx, fy, fz, mx, my, mz
#
# Force distributions of the components 
#
ZONE T="DISTR      Wing", F=POINT 
1.923936e+00   0.000000e+00   0.000000e+00	0.000000e+00   0.000000e+00   0.000000e+00   0.000000e+00
1.963488e+00   2.791514e+03   -3.084690e+02	3.460879e+04   6.869236e+04   1.146587e+04   -6.534239e+03
2.003041e+00   2.731608e+03   -2.838627e+02	3.470652e+04   7.025920e+04   1.118312e+04   -6.597969e+03
2.042593e+00   2.618575e+03   -2.713906e+02	3.478030e+04   7.178277e+04   1.104768e+04   -6.566660e+03
2.082145e+00   2.508864e+03   -2.621892e+02	3.491960e+04   7.344782e+04   1.094965e+04   -6.517370e+03
2.121697e+00   2.409220e+03   -2.629585e+02	3.499943e+04   7.499966e+04   1.083804e+04   -6.462358e+03
2.161249e+00   2.350871e+03   -2.619273e+02	3.508730e+04   7.657648e+04   1.070286e+04   -6.475833e+03
2.200801e+00   2.312757e+03   -2.665924e+02	3.511509e+04   7.802622e+04   1.044659e+04   -6.503502e+03
2.240353e+00   2.211793e+03   -2.727569e+02	3.514283e+04   7.947829e+04   1.028581e+04   -6.417367e+03
2.279905e+00   2.150048e+03   -2.654988e+02	3.515438e+04   8.089454e+04   1.016757e+04   -6.396966e+03
2.319458e+00   2.071936e+03   -2.607268e+02	3.518137e+04   8.234767e+04   1.005830e+04   -6.366785e+03
2.359010e+00   2.057164e+03   -2.704826e+02	3.517542e+04   8.372656e+04   9.868235e+03   -6.407178e+03
2.398562e+00   2.025528e+03   -2.790785e+02	3.522293e+04   8.523096e+04   9.735811e+03   -6.413343e+03
2.438114e+00   2.044351e+03   -2.849920e+02	3.520150e+04   8.657183e+04   9.600958e+03   -6.536382e+03
2.477666e+00   1.977954e+03   -2.839772e+02	3.515526e+04   8.785064e+04   9.468022e+03   -6.487371e+03
2.517218e+00   1.949220e+03   -2.992090e+02	3.513927e+04   8.920128e+04   9.364784e+03   -6.462985e+03
2.556770e+00   1.859531e+03   -2.924637e+02	3.514603e+04   9.060708e+04   9.372605e+03   -6.353442e+03
2.596322e+00   1.803654e+03   -3.020279e+02	3.514493e+04   9.199305e+04   9.293184e+03   -6.302790e+03
2.635875e+00   1.767136e+03   -3.018855e+02	3.511455e+04   9.330306e+04   9.218170e+03   -6.284789e+03
2.675427e+00   1.761146e+03   -3.245348e+02	3.508729e+04   9.461937e+04   9.118170e+03   -6.311054e+03
2.714979e+00   1.722511e+03   -3.330983e+02	3.505472e+04   9.591914e+04   9.034362e+03   -6.256591e+03
2.754531e+00   1.697831e+03   -3.392979e+02	3.500236e+04   9.716119e+04   8.874674e+03   -6.263503e+03
2.794083e+00   1.673988e+03   -3.423358e+02	3.495848e+04   9.842038e+04   8.787408e+03   -6.273466e+03
2.833635e+00   1.678608e+03   -3.549449e+02	3.494972e+04   9.977838e+04   8.793585e+03   -6.317090e+03
2.873187e+00   1.635808e+03   -3.692295e+02	3.489951e+04   1.010178e+05   8.627527e+03   -6.250949e+03
2.912739e+00   1.605258e+03   -3.738465e+02	3.483745e+04   1.022161e+05   8.628355e+03   -6.214620e+03
2.952292e+00   1.567173e+03   -3.811580e+02	3.479129e+04   1.034570e+05   8.575078e+03   -6.173392e+03
2.991844e+00   1.510284e+03   -3.826117e+02	3.475433e+04   1.047217e+05   8.449339e+03   -6.078282e+03
3.031396e+00   1.507640e+03   -3.912149e+02	3.464501e+04   1.057645e+05   8.267204e+03   -6.109952e+03
3.070948e+00   1.479506e+03   -4.026376e+02	3.461422e+04   1.070400e+05   8.266977e+03   -6.073041e+03
3.110500e+00   1.468713e+03   -4.130181e+02	3.461106e+04   1.083988e+05   8.236753e+03   -6.086381e+03
3.150052e+00   1.419598e+03   -4.266128e+02	3.456547e+04   1.096237e+05   8.202140e+03   -5.959053e+03
3.189604e+00   1.407450e+03   -4.409070e+02	3.450110e+04   1.107880e+05   8.112472e+03   -5.956086e+03
3.229156e+00   1.408070e+03   -4.485105e+02	3.445733e+04   1.120092e+05   8.028033e+03   -6.011020e+03
3.268709e+00   1.398475e+03   -4.609661e+02	3.441015e+04   1.132174e+05   7.942443e+03   -6.015037e+03
3.308261e+00   1.349727e+03   -4.646515e+02	3.439611e+04   1.145317e+05   7.948829e+03   -5.904003e+03
3.347813e+00   1.325541e+03   -4.713351e+02	3.431515e+04   1.156209e+05   7.799219e+03   -5.870324e+03
3.387365e+00   1.306573e+03   -4.942083e+02	3.426512e+04   1.168102e+05   7.757918e+03   -5.831462e+03
3.426917e+00   1.301933e+03   -4.958705e+02	3.426283e+04   1.181566e+05   7.705945e+03   -5.873921e+03
3.466469e+00   1.283303e+03   -5.083827e+02	3.420852e+04   1.193233e+05   7.683455e+03   -5.818281e+03
3.506021e+00   1.257473e+03   -5.191933e+02	3.414060e+04   1.204394e+05   7.650494e+03   -5.767953e+03
3.545574e+00   1.251530e+03   -5.273029e+02	3.410308e+04   1.216559e+05   7.558539e+03   -5.789373e+03
3.585126e+00   1.249911e+03   -5.469214e+02	3.406496e+04   1.228698e+05   7.517330e+03   -5.798161e+03
3.624678e+00   1.221666e+03   -5.584611e+02	3.399676e+04   1.239702e+05   7.429366e+03   -5.723400e+03
3.664230e+00   1.198843e+03   -5.634515e+02	3.393053e+04   1.250712e+05   7.269330e+03   -5.679663e+03
3.703782e+00   1.180908e+03   -5.750950e+02	3.388452e+04   1.262445e+05   7.231187e+03   -5.662011e+03
3.743334e+00   1.170929e+03   -5.781412e+02	3.384237e+04   1.274255e+05   7.156367e+03   -5.656854e+03
3.782886e+00   1.118222e+03   -5.891944e+02	3.377244e+04   1.285003e+05   7.136899e+03   -5.496129e+03
3.822438e+00   1.119078e+03   -6.011360e+02	3.375464e+04   1.297682e+05   7.045019e+03   -5.524696e+03
3.861991e+00   1.095890e+03   -6.113629e+02	3.370117e+04   1.308968e+05   7.023160e+03   -5.457646e+03
3.901543e+00   1.084906e+03   -6.203301e+02	3.363309e+04   1.319659e+05   6.870413e+03   -5.455132e+03
3.941095e+00   1.101239e+03   -6.313304e+02	3.358101e+04   1.330919e+05   6.817543e+03   -5.544466e+03
3.980647e+00   1.079380e+03   -6.368064e+02	3.351357e+04   1.341510e+05   6.722902e+03   -5.482613e+03
4.020199e+00   1.102192e+03   -6.511507e+02	3.347553e+04   1.353245e+05   6.617089e+03   -5.598461e+03
4.059751e+00   1.070120e+03   -6.634724e+02	3.343491e+04   1.364863e+05   6.510024e+03   -5.494013e+03
4.099303e+00   1.064127e+03   -6.767976e+02	3.337725e+04   1.375732e+05   6.376500e+03   -5.490844e+03
4.138855e+00   1.050086e+03   -6.807387e+02	3.333564e+04   1.387220e+05   6.344047e+03   -5.469964e+03
4.178408e+00   1.051478e+03   -6.881223e+02	3.326406e+04   1.397403e+05   6.216823e+03   -5.512572e+03
4.217960e+00   1.030220e+03   -6.920422e+02	3.318439e+04   1.407199e+05   6.124569e+03   -5.444312e+03
4.257512e+00   1.022801e+03   -7.124357e+02	3.314458e+04   1.418663e+05   6.045458e+03   -5.427002e+03
4.297064e+00   9.992384e+02   -7.188988e+02	3.309273e+04   1.429562e+05   5.921562e+03   -5.370638e+03
4.336616e+00   9.659699e+02   -7.261618e+02	3.305442e+04   1.440977e+05   5.839144e+03   -5.263619e+03
4.376168e+00   9.634701e+02   -7.355163e+02	3.299497e+04   1.451465e+05   5.734161e+03   -5.276561e+03
4.415720e+00   9.420122e+02   -7.455777e+02	3.291073e+04   1.460810e+05   5.671842e+03   -5.198834e+03
4.455272e+00   9.290549e+02   -7.572505e+02	3.283739e+04   1.470571e+05   5.636022e+03   -5.162994e+03
4.494825e+00   9.392691e+02   -7.635448e+02	3.280301e+04   1.482013e+05   5.581640e+03   -5.221144e+03
4.534377e+00   9.031250e+02   -7.725269e+02	3.277902e+04   1.493918e+05   5.509864e+03   -5.100058e+03
4.573929e+00   8.948882e+02   -7.748463e+02	3.272289e+04   1.504308e+05   5.380159e+03   -5.081182e+03
4.613481e+00   8.885090e+02   -7.852381e+02	3.270963e+04   1.516646e+05   5.382436e+03   -5.089675e+03
4.653033e+00   8.912264e+02   -7.961556e+02	3.262101e+04   1.525485e+05   5.310910e+03   -5.111773e+03
4.692585e+00   8.667081e+02   -7.921857e+02	3.252767e+04   1.533996e+05   5.123076e+03   -5.054220e+03
4.732137e+00   8.975009e+02   -8.045655e+02	3.248496e+04   1.544855e+05   5.077433e+03   -5.189281e+03
4.771689e+00   8.715962e+02   -8.146970e+02	3.240207e+04   1.553768e+05   4.917588e+03   -5.100577e+03
4.811242e+00   8.512151e+02   -8.221017e+02	3.235759e+04   1.564449e+05   4.767277e+03   -5.034911e+03
4.850794e+00   8.706065e+02   -8.351787e+02	3.229731e+04   1.574347e+05   4.666443e+03   -5.143026e+03
4.890346e+00   8.469467e+02   -8.360696e+02	3.224306e+04   1.584471e+05   4.609712e+03   -5.050836e+03
4.929898e+00   8.514847e+02   -8.515040e+02	3.221455e+04   1.595846e+05   4.599703e+03   -5.078359e+03
4.969450e+00   8.432571e+02   -8.522945e+02	3.213334e+04   1.604540e+05   4.503295e+03   -5.065522e+03
5.009002e+00   8.313027e+02   -8.583242e+02	3.208667e+04   1.614938e+05   4.301095e+03   -5.042867e+03
5.048554e+00   8.153662e+02   -8.607548e+02	3.204237e+04   1.625381e+05   4.156063e+03   -4.999993e+03
5.088106e+00   8.208024e+02   -8.643325e+02	3.200665e+04   1.636242e+05   4.091864e+03   -5.054654e+03
5.127659e+00   8.100047e+02   -8.709027e+02	3.193828e+04   1.645411e+05   4.026924e+03   -5.018830e+03
5.167211e+00   8.078973e+02   -8.851847e+02	3.188670e+04   1.655400e+05   3.926925e+03   -5.022578e+03
5.206763e+00   7.959560e+02   -8.876567e+02	3.184047e+04   1.665609e+05   3.877450e+03   -4.970864e+03
5.246315e+00   7.843672e+02   -8.960192e+02	3.178039e+04   1.675070e+05   3.716303e+03   -4.949186e+03
5.285867e+00   7.752791e+02   -8.996934e+02	3.172059e+04   1.684482e+05   3.597258e+03   -4.927861e+03
5.325419e+00   7.739685e+02   -9.021034e+02	3.164394e+04   1.692942e+05   3.553435e+03   -4.938426e+03
5.364971e+00   7.854959e+02   -9.018207e+02	3.159252e+04   1.702692e+05   3.510785e+03   -5.022661e+03
5.404524e+00   7.635631e+02   -9.110320e+02	3.150954e+04   1.710733e+05   3.314121e+03   -4.932006e+03
5.444076e+00   7.661407e+02   -9.169520e+02	3.144025e+04   1.719434e+05   3.129454e+03   -4.963543e+03
5.483628e+00   7.898164e+02   -9.245877e+02	3.138477e+04   1.728840e+05   3.064079e+03   -5.099164e+03
5.523180e+00   7.826788e+02   -9.265750e+02	3.135481e+04   1.739594e+05   2.971295e+03   -5.100786e+03
5.562732e+00   7.667703e+02   -9.270269e+02	3.128549e+04   1.748133e+05   2.841354e+03   -5.049539e+03
5.602284e+00   7.501895e+02   -9.304864e+02	3.121397e+04   1.756509e+05   2.751444e+03   -4.975988e+03
5.641836e+00   7.451659e+02   -9.290092e+02	3.116042e+04   1.765827e+05   2.594397e+03   -4.976240e+03
5.681388e+00   7.400221e+02   -9.311830e+02	3.109419e+04   1.774395e+05   2.500687e+03   -4.981910e+03
5.720941e+00   7.288012e+02   -9.354804e+02	3.102852e+04   1.782952e+05   2.395591e+03   -4.942788e+03
5.760493e+00   7.339297e+02   -9.402039e+02	3.097664e+04   1.792236e+05   2.322558e+03   -4.983844e+03
5.800045e+00   7.195099e+02   -9.398718e+02	3.094298e+04   1.802528e+05   2.177188e+03   -4.931235e+03
5.839597e+00   7.246942e+02   -9.416993e+02	3.085250e+04   1.809480e+05   2.069212e+03   -4.975512e+03
5.879149e+00   7.262418e+02   -9.429064e+02	3.079116e+04   1.818082e+05   2.013354e+03   -5.016950e+03
5.918701e+00   7.517804e+02   -9.510757e+02	3.075008e+04   1.827838e+05   1.943397e+03   -5.179534e+03
5.958253e+00   7.211676e+02   -9.392375e+02	3.071399e+04   1.837818e+05   1.896341e+03   -5.041610e+03
5.997805e+00   7.101240e+02   -9.432727e+02	3.065880e+04   1.846661e+05   1.730188e+03   -5.006078e+03
6.037358e+00   7.134057e+02   -9.503915e+02	3.060065e+04   1.855296e+05   1.585139e+03   -5.040849e+03
6.076910e+00   7.293323e+02   -9.457049e+02	3.051467e+04   1.862154e+05   1.381808e+03   -5.164045e+03
6.116462e+00   7.400394e+02   -9.438147e+02	3.045289e+04   1.870438e+05   1.255649e+03   -5.258748e+03
6.156014e+00   7.150264e+02   -9.431183e+02	3.038366e+04   1.878215e+05   1.093615e+03   -5.154460e+03
6.195566e+00   7.180698e+02   -9.434205e+02	3.034736e+04   1.887980e+05   9.693252e+02   -5.183800e+03
6.235118e+00   7.332469e+02   -9.415823e+02	3.028591e+04   1.896134e+05   8.977118e+02   -5.309374e+03
6.274670e+00   7.442829e+02   -9.867790e+02	3.022744e+04   1.904548e+05   7.901489e+02   -5.340060e+03
6.314222e+00   7.256560e+02   -1.162664e+03	3.020124e+04   1.915361e+05   6.662246e+02   -5.083234e+03
6.353775e+00   7.142499e+02   -1.203994e+03	3.013978e+04   1.923513e+05   5.361411e+02   -4.982056e+03
6.393327e+00   6.935924e+02   -1.202451e+03	3.007616e+04   1.931381e+05   3.284052e+02   -4.890907e+03
6.432879e+00   6.863920e+02   -1.201902e+03	3.005626e+04   1.941984e+05   1.999217e+02   -4.870111e+03
6.472431e+00   6.858846e+02   -1.201610e+03	3.002805e+04   1.952054e+05   3.677452e+01   -4.894709e+03
6.511983e+00   6.665300e+02   -1.200001e+03	3.002798e+04   1.963933e+05   -1.635539e+02   -4.799453e+03
6.551535e+00   6.573943e+02   -1.190383e+03	2.998584e+04   1.973011e+05   -3.216143e+02   -4.770409e+03
6.591087e+00   6.472160e+02   -1.197873e+03	2.993386e+04   1.981490e+05   -5.682699e+02   -4.730492e+03
6.630639e+00   6.405456e+02   -1.189182e+03	2.991589e+04   1.992107e+05   -6.981322e+02   -4.716185e+03
6.670192e+00   6.299404e+02   -1.186947e+03	2.989756e+04   2.002716e+05   -8.276728e+02   -4.686920e+03
6.709744e+00   6.228267e+02   -1.188690e+03	2.984075e+04   2.010742e+05   -9.553283e+02   -4.657710e+03
6.749296e+00   5.992703e+02   -1.181133e+03	2.982120e+04   2.021208e+05   -1.219983e+03   -4.540331e+03
6.788848e+00   5.938665e+02   -1.179006e+03	2.980008e+04   2.031570e+05   -1.399395e+03   -4.543319e+03
6.828400e+00   6.096631e+02   -1.183108e+03	2.975542e+04   2.040324e+05   -1.524741e+03   -4.658642e+03
6.867952e+00   5.759685e+02   -1.172257e+03	2.973379e+04   2.050576e+05   -1.729989e+03   -4.468727e+03
6.907504e+00   5.809244e+02   -1.171637e+03	2.971357e+04   2.060937e+05   -1.852755e+03   -4.528005e+03
6.947056e+00   5.714282e+02   -1.173645e+03	2.967369e+04   2.069937e+05   -2.054397e+03   -4.490385e+03
6.986609e+00   5.662856e+02   -1.173101e+03	2.965934e+04   2.080672e+05   -2.127608e+03   -4.470586e+03
7.026161e+00   5.685611e+02   -1.173089e+03	2.963247e+04   2.090522e+05   -2.245158e+03   -4.514023e+03
7.065713e+00   5.554844e+02   -1.167093e+03	2.961171e+04   2.100758e+05   -2.443603e+03   -4.453651e+03
7.105265e+00   5.484770e+02   -1.166707e+03	2.956012e+04   2.108809e+05   -2.651729e+03   -4.424056e+03
7.144817e+00   5.442041e+02   -1.167393e+03	2.952333e+04   2.117891e+05   -2.813773e+03   -4.422601e+03
7.184369e+00   5.249872e+02   -1.163799e+03	2.954891e+04   2.131387e+05   -2.989892e+03   -4.318074e+03
7.223921e+00   5.319003e+02   -1.166656e+03	2.949927e+04   2.139515e+05   -3.190893e+03   -4.391422e+03
7.263474e+00   5.241818e+02   -1.163921e+03	2.947429e+04   2.149352e+05   -3.305641e+03   -4.356881e+03
7.303026e+00   5.178662e+02   -1.157582e+03	2.942555e+04   2.157431e+05   -3.512775e+03   -4.339186e+03
7.342578e+00   5.155072e+02   -1.156028e+03	2.938582e+04   2.166157e+05   -3.697165e+03   -4.349736e+03
7.382130e+00   5.085985e+02   -1.154184e+03	2.935892e+04   2.175795e+05   -3.884500e+03   -4.319649e+03
7.421682e+00   4.970038e+02   -1.156251e+03	2.933164e+04   2.185403e+05   -4.072715e+03   -4.262638e+03
7.461234e+00   4.971057e+02   -1.156628e+03	2.930602e+04   2.195098e+05   -4.241674e+03   -4.281146e+03
7.500786e+00   5.021421e+02   -1.149926e+03	2.928226e+04   2.204874e+05   -4.439976e+03   -4.350743e+03
7.540338e+00   4.818567e+02   -1.150856e+03	2.925860e+04   2.214699e+05   -4.662335e+03   -4.228866e+03
7.579891e+00   4.888804e+02   -1.151045e+03	2.922136e+04   2.223453e+05   -4.776472e+03   -4.301108e+03
7.619443e+00   4.801635e+02   -1.149564e+03	2.919297e+04   2.232841e+05   -4.932812e+03   -4.270683e+03
7.658995e+00   4.599879e+02   -1.140137e+03	2.917036e+04   2.242626e+05   -5.084668e+03   -4.129500e+03
7.698547e+00   4.623079e+02   -1.143103e+03	2.912415e+04   2.250627e+05   -5.285572e+03   -4.173881e+03
7.738099e+00   4.507214e+02   -1.138959e+03	2.909366e+04   2.259785e+05   -5.417511e+03   -4.108819e+03
7.777651e+00   4.565855e+02   -1.140152e+03	2.906203e+04   2.268835e+05   -5.565022e+03   -4.172553e+03
7.817203e+00   4.701471e+02   -1.144921e+03	2.898979e+04   2.274707e+05   -5.796411e+03   -4.295388e+03
7.856755e+00   4.667248e+02   -1.137235e+03	2.898708e+04   2.285937e+05   -5.979122e+03   -4.294305e+03
7.896308e+00   4.491552e+02   -1.140989e+03	2.898082e+04   2.296933e+05   -6.138933e+03   -4.182939e+03
7.935860e+00   4.509543e+02   -1.134264e+03	2.893984e+04   2.305119e+05   -6.379883e+03   -4.221643e+03
7.975412e+00   4.385475e+02   -1.134941e+03	2.890780e+04   2.314019e+05   -6.550369e+03   -4.142325e+03
8.014964e+00   4.259159e+02   -1.129135e+03	2.889815e+04   2.324672e+05   -6.726917e+03   -4.067146e+03
8.054516e+00   4.473024e+02   -1.137315e+03	2.887696e+04   2.334429e+05   -6.934316e+03   -4.258129e+03
8.094068e+00   4.527720e+02   -1.134089e+03	2.886527e+04   2.344883e+05   -7.130313e+03   -4.325844e+03
8.133620e+00   4.489909e+02   -1.130705e+03	2.881215e+04   2.351980e+05   -7.312990e+03   -4.319318e+03
8.173172e+00   4.339667e+02   -1.136746e+03	2.876829e+04   2.359830e+05   -7.428607e+03   -4.219281e+03
8.212725e+00   4.012027e+02   -1.123402e+03	2.873385e+04   2.368329e+05   -7.577219e+03   -3.987246e+03
8.252277e+00   4.018136e+02   -1.116827e+03	2.869539e+04   2.376488e+05   -7.728404e+03   -3.997631e+03
8.291829e+00   4.124633e+02   -1.126920e+03	2.867498e+04   2.386204e+05   -7.889736e+03   -4.107626e+03
8.331381e+00   4.144846e+02   -1.124340e+03	2.864985e+04   2.395453e+05   -8.050946e+03   -4.152547e+03
8.370933e+00   4.051260e+02   -1.115926e+03	2.862183e+04   2.404400e+05   -8.272554e+03   -4.091164e+03
8.410485e+00   4.125945e+02   -1.119833e+03	2.858376e+04   2.412543e+05   -8.415615e+03   -4.172960e+03
8.450037e+00   4.062367e+02   -1.120697e+03	2.854026e+04   2.420189e+05   -8.509370e+03   -4.143938e+03
8.489589e+00   4.177756e+02   -1.122603e+03	2.848658e+04   2.426929e+05   -8.694549e+03   -4.250432e+03
8.529142e+00   4.062968e+02   -1.117564e+03	2.847746e+04   2.437400e+05   -8.873223e+03   -4.173597e+03
8.568694e+00   3.991857e+02   -1.115681e+03	2.845696e+04   2.446912e+05   -9.060100e+03   -4.136411e+03
8.608246e+00   3.911435e+02   -1.112426e+03	2.842833e+04   2.455703e+05   -9.267477e+03   -4.105434e+03
8.647798e+00   3.922686e+02   -1.111518e+03	2.840334e+04   2.464772e+05   -9.427884e+03   -4.122456e+03
8.687350e+00   3.853873e+02   -1.111918e+03	2.836615e+04   2.472794e+05   -9.611536e+03   -4.079453e+03
8.726902e+00   3.758279e+02   -1.108631e+03	2.833498e+04   2.481288e+05   -9.781406e+03   -4.019968e+03
8.766454e+00   3.805602e+02   -1.105840e+03	2.828358e+04   2.487975e+05   -9.938237e+03   -4.087286e+03
8.806006e+00   3.745797e+02   -1.104270e+03	2.828133e+04   2.498966e+05   -1.010403e+04   -4.058798e+03
8.845559e+00   3.593018e+02   -1.100938e+03	2.823454e+04   2.506008e+05   -1.023517e+04   -3.940315e+03
8.885111e+00   3.619522e+02   -1.098319e+03	2.817505e+04   2.511881e+05   -1.039658e+04   -3.978966e+03
8.924663e+00   3.636669e+02   -1.102505e+03	2.816003e+04   2.521715e+05   -1.055424e+04   -4.009716e+03
8.964215e+00   3.563090e+02   -1.103344e+03	2.812117e+04   2.529371e+05   -1.076745e+04   -3.965907e+03
9.003767e+00   3.580847e+02   -1.097836e+03	2.807956e+04   2.536737e+05   -1.093535e+04   -4.005333e+03
9.043319e+00   3.691550e+02   -1.097101e+03	2.802550e+04   2.542955e+05   -1.110933e+04   -4.116311e+03
9.082871e+00   3.636557e+02   -1.097630e+03	2.799092e+04   2.550902e+05   -1.124922e+04   -4.091546e+03
9.122424e+00   3.532176e+02   -1.093867e+03	2.797070e+04   2.560130e+05   -1.138903e+04   -4.016626e+03
9.161976e+00   3.394286e+02   -1.088672e+03	2.792275e+04   2.566779e+05   -1.156090e+04   -3.904054e+03
9.201528e+00   3.492528e+02   -1.095139e+03	2.788947e+04   2.574796e+05   -1.175080e+04   -4.005047e+03
9.241080e+00   3.518873e+02   -1.094033e+03	2.786132e+04   2.583225e+05   -1.189867e+04   -4.060538e+03
9.280632e+00   3.625482e+02   -1.092361e+03	2.781135e+04   2.589607e+05   -1.203603e+04   -4.169049e+03
9.320184e+00   3.585634e+02   -1.087258e+03	2.776601e+04   2.596365e+05   -1.226192e+04   -4.158424e+03
9.359736e+00   3.395034e+02   -1.084916e+03	2.773865e+04   2.604784e+05   -1.238732e+04   -3.997508e+03
9.399288e+00   3.477351e+02   -1.086939e+03	2.767161e+04   2.609470e+05   -1.250648e+04   -4.093983e+03
9.438841e+00   3.354098e+02   -1.078612e+03	2.766486e+04   2.619742e+05   -1.272964e+04   -3.987551e+03
9.478393e+00   3.342558e+02   -1.083084e+03	2.764947e+04   2.629255e+05   -1.290948e+04   -4.008053e+03
9.517945e+00   3.502078e+02   -1.083703e+03	2.758605e+04   2.634177e+05   -1.308479e+04   -4.175918e+03
9.557497e+00   3.290598e+02   -1.075191e+03	2.756998e+04   2.643503e+05   -1.324968e+04   -3.999351e+03
9.597049e+00   3.193126e+02   -1.070399e+03	2.750232e+04   2.647895e+05   -1.339386e+04   -3.915801e+03
9.636601e+00   3.129196e+02   -1.072852e+03	2.747724e+04   2.656385e+05   -1.359184e+04   -3.871825e+03
9.676153e+00   3.293853e+02   -1.078999e+03	2.745619e+04   2.665255e+05   -1.375118e+04   -4.046990e+03
9.715705e+00   3.465781e+02   -1.076841e+03	2.742386e+04   2.672968e+05   -1.384252e+04   -4.224364e+03
9.755258e+00   3.455225e+02   -1.076038e+03	2.738680e+04   2.680194e+05   -1.401755e+04   -4.237677e+03
9.794810e+00   3.311729e+02   -1.076070e+03	2.733869e+04   2.686329e+05   -1.417696e+04   -4.104880e+03
9.834362e+00   3.214279e+02   -1.073097e+03	2.730051e+04   2.693381e+05   -1.433294e+04   -4.038676e+03
9.873914e+00   3.154080e+02   -1.059973e+03	2.724362e+04   2.698498e+05   -1.452766e+04   -4.001288e+03
9.913466e+00   3.128447e+02   -1.065974e+03	2.720549e+04   2.705546e+05   -1.471348e+04   -3.991213e+03
9.953018e+00   3.123620e+02   -1.063028e+03	2.718314e+04   2.714064e+05   -1.485729e+04   -4.002057e+03
9.992570e+00   2.973516e+02   -1.059649e+03	2.715163e+04   2.721658e+05   -1.502168e+04   -3.875136e+03
1.003212e+01   2.909325e+02   -1.056085e+03	2.710446e+04   2.727653e+05   -1.514400e+04   -3.832760e+03
1.007167e+01   2.933901e+02   -1.051981e+03	2.703277e+04   2.731145e+05   -1.535581e+04   -3.871822e+03
1.011123e+01   3.122523e+02   -1.060257e+03	2.700048e+04   2.738616e+05   -1.551832e+04   -4.067885e+03
1.015078e+01   3.249057e+02   -1.053839e+03	2.696522e+04   2.745683e+05   -1.559846e+04   -4.210203e+03
1.019033e+01   3.220025e+02   -1.065485e+03	2.695943e+04   2.755842e+05   -1.579565e+04   -4.199986e+03
1.022988e+01   3.071653e+02   -1.056934e+03	2.692133e+04   2.762564e+05   -1.597196e+04   -4.077268e+03
1.026944e+01   3.167143e+02   -1.054354e+03	2.688784e+04   2.769761e+05   -1.607512e+04   -4.172929e+03
1.030899e+01   3.038983e+02   -1.046563e+03	2.684810e+04   2.776271e+05   -1.626337e+04   -4.065804e+03
1.034854e+01   3.160679e+02   -1.057626e+03	2.677660e+04   2.779560e+05   -1.639221e+04   -4.214331e+03
1.038809e+01   3.081805e+02   -1.048969e+03	2.673799e+04   2.786095e+05   -1.654948e+04   -4.149812e+03
1.042764e+01   2.847486e+02   -1.043472e+03	2.673797e+04   2.796648e+05   -1.670625e+04   -3.922940e+03
1.046720e+01   2.900416e+02   -1.043112e+03	2.671000e+04   2.804303e+05   -1.681720e+04   -3.992916e+03
1.050675e+01   2.839043e+02   -1.042380e+03	2.668206e+04   2.811929e+05   -1.704089e+04   -3.940940e+03
1.054630e+01   2.763142e+02   -1.040799e+03	2.663204e+04   2.817210e+05   -1.719464e+04   -3.880947e+03
1.058585e+01   2.862913e+02   -1.040551e+03	2.657326e+04   2.821536e+05   -1.730779e+04   -4.005705e+03
1.062540e+01   2.934596e+02   -1.042315e+03	2.655326e+04   2.829929e+05   -1.750150e+04   -4.090212e+03
1.066496e+01   3.024914e+02   -1.044172e+03	2.651427e+04   2.836289e+05   -1.765524e+04   -4.200903e+03
1.070451e+01   3.038455e+02   -1.042021e+03	2.643786e+04   2.838595e+05   -1.779437e+04   -4.233898e+03
1.074406e+01   2.934501e+02   -1.036035e+03	2.637442e+04   2.842213e+05   -1.792923e+04   -4.137014e+03
1.078361e+01   2.807599e+02   -1.029496e+03	2.635009e+04   2.849994e+05   -1.806555e+04   -4.018128e+03
1.082316e+01   2.839225e+02   -1.032051e+03	2.633333e+04   2.858618e+05   -1.824418e+04   -4.071091e+03
1.086272e+01   2.882422e+02   -1.032504e+03	2.628717e+04   2.864031e+05   -1.839279e+04   -4.127496e+03
1.090227e+01   2.604834e+02   -1.028453e+03	2.625736e+04   2.871169e+05   -1.853792e+04   -3.847670e+03
1.094182e+01   2.609057e+02   -1.025140e+03	2.619227e+04   2.874422e+05   -1.863190e+04   -3.862998e+03
1.098137e+01   2.622787e+02   -1.027421e+03	2.616746e+04   2.882077e+05   -1.882445e+04   -3.899800e+03
1.102093e+01   2.692040e+02   -1.020136e+03	2.612716e+04   2.887949e+05   -1.900309e+04   -3.983805e+03
1.106048e+01   2.856106e+02   -1.029017e+03	2.608873e+04   2.894093e+05   -1.915026e+04   -4.185787e+03
1.110003e+01   2.892648e+02   -1.025696e+03	2.605418e+04   2.900569e+05   -1.931032e+04   -4.236690e+03
1.113958e+01   2.793395e+02   -1.019859e+03	2.604072e+04   2.909344e+05   -1.942784e+04   -4.145087e+03
1.117913e+01   2.624650e+02   -1.018956e+03	2.600099e+04   2.915203e+05   -1.958799e+04   -3.976188e+03
1.121869e+01   2.613468e+02   -1.016782e+03	2.596138e+04   2.921037e+05   -1.972935e+04   -3.964861e+03
1.125824e+01   2.537901e+02   -1.016836e+03	2.590108e+04   2.924531e+05   -1.987901e+04   -3.897361e+03
1.129779e+01   2.569606e+02   -1.019214e+03	2.585745e+04   2.929874e+05   -2.006464e+04   -3.963926e+03
1.133734e+01   2.621828e+02   -1.010473e+03	2.582021e+04   2.935830e+05   -2.016358e+04   -4.022611e+03
1.137689e+01   2.466631e+02   -1.008939e+03	2.578205e+04   2.941704e+05   -2.036140e+04   -3.873797e+03
1.141645e+01   2.434353e+02   -1.003107e+03	2.572197e+04   2.945011e+05   -2.045949e+04   -3.844827e+03
1.145600e+01   2.450498e+02   -1.005307e+03	2.565598e+04   2.947647e+05   -2.057991e+04   -3.878699e+03
1.149555e+01   2.675062e+02   -1.010554e+03	2.561962e+04   2.953655e+05   -2.074592e+04   -4.139811e+03
1.153510e+01   2.657188e+02   -1.008502e+03	2.559740e+04   2.961218e+05   -2.091281e+04   -4.138596e+03
1.157466e+01   2.626824e+02   -1.006406e+03	2.553554e+04   2.964177e+05   -2.101662e+04   -4.113280e+03
1.161421e+01   2.504758e+02   -1.001261e+03	2.548378e+04   2.968250e+05   -2.115091e+04   -3.997087e+03
1.165376e+01   2.524061e+02   -9.989593e+02	2.542925e+04   2.971961e+05   -2.126151e+04   -4.028020e+03
1.169331e+01   2.525001e+02   -9.996559e+02	2.540940e+04   2.979712e+05   -2.140956e+04   -4.039708e+03
1.173286e+01   2.617522e+02   -9.971510e+02	2.537282e+04   2.985461e+05   -2.156172e+04   -4.162987e+03
1.177242e+01   2.628024e+02   -1.000722e+03	2.536725e+04   2.994871e+05   -2.171410e+04   -4.190079e+03
1.181197e+01   2.424600e+02   -9.927545e+02	2.532957e+04   3.000414e+05   -2.186721e+04   -3.972930e+03
1.185152e+01   2.494982e+02   -9.985024e+02	2.527999e+04   3.004598e+05   -2.201140e+04   -4.070085e+03
1.189107e+01   2.520457e+02   -9.916753e+02	2.523833e+04   3.009611e+05   -2.219647e+04   -4.111163e+03
1.193062e+01   2.459535e+02   -9.842622e+02	2.513655e+04   3.007423e+05   -2.230571e+04   -4.050292e+03
1.197018e+01   2.489543e+02   -9.874143e+02	2.510584e+04   3.013711e+05   -2.242979e+04   -4.098452e+03
1.200973e+01   2.512681e+02   -9.874277e+02	2.507117e+04   3.019479e+05   -2.252764e+04   -4.139727e+03
1.204928e+01   2.445988e+02   -9.863661e+02	2.503714e+04   3.025308e+05   -2.270953e+04   -4.081336e+03
1.208883e+01   2.383834e+02   -9.800835e+02	2.497616e+04   3.027798e+05   -2.282000e+04   -4.009125e+03
1.212839e+01   2.393369e+02   -9.771051e+02	2.492193e+04   3.031091e+05   -2.294685e+04   -4.036288e+03
1.216794e+01   2.368321e+02   -9.732002e+02	2.487582e+04   3.035325e+05   -2.305367e+04   -4.028927e+03
1.220749e+01   2.337393e+02   -9.773315e+02	2.482514e+04   3.039016e+05   -2.321676e+04   -4.006528e+03
1.224704e+01   2.351878e+02   -9.730829e+02	2.480799e+04   3.046706e+05   -2.334256e+04   -4.024051e+03
1.228659e+01   2.344227e+02   -9.755968e+02	2.478998e+04   3.054332e+05   -2.352002e+04   -4.032879e+03
1.232615e+01   2.308544e+02   -9.711244e+02	2.473687e+04   3.057569e+05   -2.366219e+04   -4.002562e+03
1.236570e+01   2.290370e+02   -9.722658e+02	2.468524e+04   3.060990e+05   -2.379019e+04   -3.995892e+03
1.240525e+01   2.152028e+02   -9.665617e+02	2.465962e+04   3.067541e+05   -2.389344e+04   -3.835357e+03
1.244480e+01   2.240688e+02   -9.634267e+02	2.461775e+04   3.072067e+05   -2.399821e+04   -3.950683e+03
1.248435e+01   2.249862e+02   -9.653816e+02	2.455736e+04   3.074294e+05   -2.411422e+04   -3.980615e+03
1.252391e+01   2.235607e+02   -9.698225e+02	2.449675e+04   3.076457e+05   -2.424028e+04   -3.985873e+03
1.256346e+01   2.300095e+02   -9.638232e+02	2.448194e+04   3.084244e+05   -2.435399e+04   -4.068625e+03
1.260301e+01   2.170755e+02   -9.564340e+02	2.442895e+04   3.087214e+05   -2.447730e+04   -3.923759e+03
1.264256e+01   2.023393e+02   -9.525767e+02	2.440011e+04   3.093208e+05   -2.463760e+04   -3.755807e+03
1.268211e+01   2.133127e+02   -9.544313e+02	2.430811e+04   3.091218e+05   -2.475392e+04   -3.896909e+03
1.272167e+01   2.283953e+02   -9.525015e+02	2.424137e+04   3.092334e+05   -2.485623e+04   -4.091642e+03
1.276122e+01   2.152245e+02   -9.534666e+02	2.418410e+04   3.094639e+05   -2.500283e+04   -3.947861e+03
1.280077e+01   2.178514e+02   -9.447456e+02	2.414922e+04   3.099673e+05   -2.509732e+04   -3.983496e+03
1.284032e+01   2.093121e+02   -9.473738e+02	2.410627e+04   3.103747e+05   -2.522372e+04   -3.892447e+03
1.287988e+01   1.980844e+02   -9.422322e+02	2.405449e+04   3.106592e+05   -2.534840e+04   -3.761538e+03
1.291943e+01   2.079378e+02   -9.384976e+02	2.401163e+04   3.110538e+05   -2.544935e+04   -3.898210e+03
1.295898e+01   2.076881e+02   -9.400876e+02	2.398414e+04   3.116497e+05   -2.561535e+04   -3.904052e+03
1.299853e+01   2.044350e+02   -9.385963e+02	2.394125e+04   3.120409e+05   -2.573558e+04   -3.877449e+03
1.303808e+01   1.989778e+02   -9.323361e+02	2.390300e+04   3.124852e+05   -2.587177e+04   -3.816118e+03
1.307764e+01   2.003931e+02   -9.348329e+02	2.387264e+04   3.130366e+05   -2.598344e+04   -3.845714e+03
1.311719e+01   2.086174e+02   -9.370342e+02	2.384113e+04   3.135693e+05   -2.609683e+04   -3.967522e+03
1.315674e+01   2.149570e+02   -9.338045e+02	2.375804e+04   3.134176e+05   -2.616427e+04   -4.065542e+03
1.319629e+01   2.216254e+02   -9.337978e+02	2.372309e+04   3.138969e+05   -2.628580e+04   -4.162051e+03
1.323584e+01   2.034939e+02   -9.314504e+02	2.366604e+04   3.140792e+05   -2.640949e+04   -3.932976e+03