TITLE = "Grid: prim/mr_v4.2_no_tail_wing_v2_wing_set_0.17_targ_coarse_lvl_2.grid, Pointdata: sol/sol.pval.unsteady_i=3300_t=6.60000000e-01" 
VARIABLES = "Y", fx, fy, fz, mx, my, mz
#
# Force distributions of the components 
#
ZONE T="DISTR      Wing", F=POINT 
1.923936e+00   0.000000e+00   0.000000e+00	0.000000e+00   0.000000e+00   0.000000e+00   0.000000e+00
1.963488e+00   2.840822e+03   -2.804773e+02	3.355713e+04   6.662917e+04   8.903749e+03   -6.712832e+03
2.003041e+00   2.781551e+03   -2.557162e+02	3.365530e+04   6.815525e+04   8.616076e+03   -6.779883e+03
2.042593e+00   2.669027e+03   -2.433492e+02	3.372398e+04   6.962684e+04   8.476595e+03   -6.751316e+03
2.082145e+00   2.559574e+03   -2.335605e+02	3.386104e+04   7.124524e+04   8.376359e+03   -6.704816e+03
2.121697e+00   2.460447e+03   -2.344942e+02	3.393951e+04   7.275231e+04   8.263320e+03   -6.653074e+03
2.161249e+00   2.402610e+03   -2.332017e+02	3.402514e+04   7.428222e+04   8.126754e+03   -6.669755e+03
2.200801e+00   2.365162e+03   -2.377972e+02	3.405270e+04   7.568941e+04   7.868594e+03   -6.700936e+03
2.240353e+00   2.264788e+03   -2.439596e+02	3.408101e+04   7.710062e+04   7.707089e+03   -6.618090e+03
2.279905e+00   2.203300e+03   -2.365394e+02	3.409124e+04   7.847175e+04   7.588645e+03   -6.600536e+03
2.319458e+00   2.125741e+03   -2.317065e+02	3.411941e+04   7.988554e+04   7.480660e+03   -6.573942e+03
2.359010e+00   2.111634e+03   -2.413896e+02	3.411407e+04   8.122372e+04   7.292973e+03   -6.617597e+03
2.398562e+00   2.080301e+03   -2.500718e+02	3.416068e+04   8.268394e+04   7.161569e+03   -6.626702e+03
2.438114e+00   2.099164e+03   -2.558523e+02	3.413971e+04   8.398383e+04   7.028584e+03   -6.752252e+03
2.477666e+00   2.032947e+03   -2.545255e+02	3.409213e+04   8.521716e+04   6.899285e+03   -6.705822e+03
2.517218e+00   2.004708e+03   -2.698832e+02	3.407672e+04   8.652718e+04   6.799225e+03   -6.684797e+03
2.556770e+00   1.915135e+03   -2.627301e+02	3.408227e+04   8.788766e+04   6.810276e+03   -6.578223e+03
2.596322e+00   1.859520e+03   -2.723999e+02	3.408357e+04   8.923774e+04   6.736057e+03   -6.530296e+03
2.635875e+00   1.823143e+03   -2.718911e+02	3.405137e+04   9.050079e+04   6.664717e+03   -6.514856e+03
2.675427e+00   1.817605e+03   -2.947178e+02	3.402693e+04   9.178261e+04   6.568130e+03   -6.544881e+03
2.714979e+00   1.778931e+03   -3.028604e+02	3.399225e+04   9.303449e+04   6.490633e+03   -6.492457e+03
2.754531e+00   1.754753e+03   -3.092850e+02	3.394348e+04   9.424441e+04   6.335792e+03   -6.503133e+03
2.794083e+00   1.731490e+03   -3.123232e+02	3.390217e+04   9.546883e+04   6.253252e+03   -6.516550e+03
2.833635e+00   1.736349e+03   -3.248284e+02	3.389229e+04   9.678173e+04   6.265891e+03   -6.562838e+03
2.873187e+00   1.692903e+03   -3.386769e+02	3.383698e+04   9.796447e+04   6.107464e+03   -6.497680e+03
2.912739e+00   1.662395e+03   -3.428119e+02	3.377809e+04   9.912981e+04   6.114556e+03   -6.463846e+03
2.952292e+00   1.624228e+03   -3.502313e+02	3.373279e+04   1.003313e+05   6.067319e+03   -6.424980e+03
2.991844e+00   1.567119e+03   -3.515904e+02	3.369503e+04   1.015516e+05   5.948050e+03   -6.331680e+03
3.031396e+00   1.565259e+03   -3.600656e+02	3.359167e+04   1.025705e+05   5.772369e+03   -6.367821e+03
3.070948e+00   1.537039e+03   -3.715455e+02	3.355831e+04   1.037964e+05   5.780383e+03   -6.332701e+03
3.110500e+00   1.526375e+03   -3.816592e+02	3.355507e+04   1.051131e+05   5.756628e+03   -6.348772e+03
3.150052e+00   1.477395e+03   -3.950355e+02	3.350789e+04   1.062910e+05   5.728190e+03   -6.223981e+03
3.189604e+00   1.464819e+03   -4.087941e+02	3.344299e+04   1.074115e+05   5.646883e+03   -6.222409e+03
3.229156e+00   1.465608e+03   -4.167434e+02	3.340191e+04   1.085997e+05   5.570398e+03   -6.280119e+03
3.268709e+00   1.456104e+03   -4.290555e+02	3.335711e+04   1.097737e+05   5.494107e+03   -6.286483e+03
3.308261e+00   1.407470e+03   -4.326123e+02	3.334559e+04   1.110547e+05   5.507705e+03   -6.178387e+03
3.347813e+00   1.382772e+03   -4.387828e+02	3.326081e+04   1.120892e+05   5.367727e+03   -6.145065e+03
3.387365e+00   1.363987e+03   -4.616660e+02	3.321220e+04   1.132416e+05   5.334548e+03   -6.109277e+03
3.426917e+00   1.359535e+03   -4.634599e+02	3.321299e+04   1.145569e+05   5.290749e+03   -6.154781e+03
3.466469e+00   1.340443e+03   -4.753917e+02	3.315335e+04   1.156633e+05   5.276262e+03   -6.099375e+03
3.506021e+00   1.314771e+03   -4.862161e+02	3.308912e+04   1.167506e+05   5.252866e+03   -6.052123e+03
3.545574e+00   1.308727e+03   -4.944246e+02	3.305191e+04   1.179265e+05   5.171250e+03   -6.075138e+03
3.585126e+00   1.306842e+03   -5.135878e+02	3.301255e+04   1.190941e+05   5.139970e+03   -6.085262e+03
3.624678e+00   1.277981e+03   -5.245380e+02	3.294147e+04   1.201422e+05   5.063166e+03   -6.010611e+03
3.664230e+00   1.255301e+03   -5.299525e+02	3.287868e+04   1.212142e+05   4.912221e+03   -5.969599e+03
3.703782e+00   1.237394e+03   -5.413123e+02	3.283414e+04   1.223511e+05   4.883893e+03   -5.954245e+03
3.743334e+00   1.227322e+03   -5.440896e+02	3.279167e+04   1.234892e+05   4.818718e+03   -5.950548e+03
3.782886e+00   1.174666e+03   -5.552637e+02	3.272567e+04   1.245374e+05   4.808205e+03   -5.792421e+03
3.822438e+00   1.175550e+03   -5.671263e+02	3.270801e+04   1.257642e+05   4.726347e+03   -5.823236e+03
3.861991e+00   1.152207e+03   -5.772751e+02	3.265649e+04   1.268589e+05   4.714716e+03   -5.757768e+03
3.901543e+00   1.140678e+03   -5.857490e+02	3.258557e+04   1.278753e+05   4.574375e+03   -5.755106e+03
3.941095e+00   1.156981e+03   -5.964722e+02	3.253328e+04   1.289589e+05   4.531287e+03   -5.846361e+03
3.980647e+00   1.135198e+03   -6.022585e+02	3.247205e+04   1.300014e+05   4.447617e+03   -5.787309e+03
4.020199e+00   1.157580e+03   -6.164122e+02	3.243327e+04   1.311305e+05   4.354035e+03   -5.903146e+03
4.059751e+00   1.125202e+03   -6.282700e+02	3.239221e+04   1.322491e+05   4.259011e+03   -5.799987e+03
4.099303e+00   1.119107e+03   -6.416003e+02	3.233668e+04   1.333034e+05   4.136124e+03   -5.798079e+03
4.138855e+00   1.104118e+03   -6.448791e+02	3.229251e+04   1.344001e+05   4.114543e+03   -5.775958e+03
4.178408e+00   1.105107e+03   -6.525731e+02	3.222166e+04   1.353803e+05   3.999921e+03   -5.818690e+03
4.217960e+00   1.083939e+03   -6.562603e+02	3.214435e+04   1.363285e+05   3.920177e+03   -5.752466e+03
4.257512e+00   1.076975e+03   -6.765584e+02	3.210958e+04   1.374550e+05   3.851770e+03   -5.739133e+03
4.297064e+00   1.052803e+03   -6.828394e+02	3.205268e+04   1.384822e+05   3.738601e+03   -5.682228e+03
4.336616e+00   1.019150e+03   -6.900575e+02	3.201613e+04   1.395901e+05   3.667469e+03   -5.575459e+03
4.376168e+00   1.016357e+03   -6.991568e+02	3.195978e+04   1.406112e+05   3.574658e+03   -5.589290e+03
4.415720e+00   9.945168e+02   -7.089853e+02	3.187445e+04   1.414999e+05   3.524977e+03   -5.511752e+03
4.455272e+00   9.814970e+02   -7.205781e+02	3.180167e+04   1.424373e+05   3.502262e+03   -5.477205e+03
4.494825e+00   9.913499e+02   -7.267673e+02	3.176662e+04   1.435374e+05   3.461212e+03   -5.535408e+03
4.534377e+00   9.547833e+02   -7.355180e+02	3.173935e+04   1.446719e+05   3.400457e+03   -5.414255e+03
4.573929e+00   9.466111e+02   -7.379782e+02	3.168929e+04   1.456976e+05   3.282731e+03   -5.397530e+03
4.613481e+00   9.397019e+02   -7.481028e+02	3.167453e+04   1.468834e+05   3.297652e+03   -5.405327e+03
4.653033e+00   9.424681e+02   -7.590171e+02	3.159099e+04   1.477499e+05   3.237392e+03   -5.429528e+03
4.692585e+00   9.179208e+02   -7.550075e+02	3.150218e+04   1.485815e+05   3.062440e+03   -5.373601e+03
4.732137e+00   9.483966e+02   -7.672871e+02	3.145977e+04   1.496281e+05   3.030887e+03   -5.508957e+03
4.771689e+00   9.219946e+02   -7.772045e+02	3.137755e+04   1.504819e+05   2.884783e+03   -5.419661e+03
4.811242e+00   9.011144e+02   -7.845012e+02	3.133255e+04   1.515069e+05   2.747041e+03   -5.353136e+03
4.850794e+00   9.200254e+02   -7.973585e+02	3.127159e+04   1.524527e+05   2.659913e+03   -5.460761e+03
4.890346e+00   8.963426e+02   -7.980465e+02	3.121885e+04   1.534318e+05   2.615347e+03   -5.370083e+03
4.929898e+00   9.004513e+02   -8.134695e+02	3.118802e+04   1.545172e+05   2.619345e+03   -5.396955e+03
4.969450e+00   8.919581e+02   -8.141376e+02	3.111067e+04   1.553651e+05   2.534977e+03   -5.384369e+03
5.009002e+00   8.792946e+02   -8.197732e+02	3.106099e+04   1.563491e+05   2.345763e+03   -5.360120e+03
5.048554e+00   8.630456e+02   -8.221568e+02	3.101650e+04   1.573518e+05   2.214525e+03   -5.316839e+03
5.088106e+00   8.679053e+02   -8.255978e+02	3.098014e+04   1.583939e+05   2.165073e+03   -5.370141e+03
5.127659e+00   8.572185e+02   -8.321070e+02	3.091411e+04   1.592821e+05   2.112871e+03   -5.336248e+03
5.167211e+00   8.553254e+02   -8.466044e+02	3.086778e+04   1.602677e+05   2.025313e+03   -5.342583e+03
5.206763e+00   8.429992e+02   -8.489715e+02	3.082356e+04   1.612586e+05   1.989796e+03   -5.290455e+03
5.246315e+00   8.309330e+02   -8.571048e+02	3.076382e+04   1.621661e+05   1.842558e+03   -5.267871e+03
5.285867e+00   8.217503e+02   -8.607838e+02	3.070572e+04   1.630761e+05   1.736241e+03   -5.247359e+03
5.325419e+00   8.203329e+02   -8.633783e+02	3.063313e+04   1.639035e+05   1.706053e+03   -5.258584e+03
5.364971e+00   8.313237e+02   -8.629008e+02	3.057971e+04   1.648277e+05   1.679351e+03   -5.341427e+03
5.404524e+00   8.092920e+02   -8.719986e+02	3.050119e+04   1.656156e+05   1.497597e+03   -5.251586e+03
5.444076e+00   8.109415e+02   -8.776344e+02	3.042771e+04   1.664229e+05   1.327108e+03   -5.279398e+03
5.483628e+00   8.340967e+02   -8.850483e+02	3.037229e+04   1.673236e+05   1.276529e+03   -5.413775e+03
5.523180e+00   8.269930e+02   -8.872825e+02	3.034666e+04   1.683829e+05   1.196388e+03   -5.416565e+03
5.562732e+00   8.104173e+02   -8.875139e+02	3.027608e+04   1.691897e+05   1.081863e+03   -5.362879e+03
5.602284e+00   7.941316e+02   -8.910216e+02	3.020820e+04   1.700077e+05   1.005280e+03   -5.292150e+03
5.641836e+00   7.886546e+02   -8.896086e+02	3.015340e+04   1.708927e+05   8.623836e+02   -5.291030e+03
5.681388e+00   7.828974e+02   -8.914694e+02	3.008851e+04   1.717171e+05   7.826083e+02   -5.294553e+03
5.720941e+00   7.714087e+02   -8.957045e+02	3.002440e+04   1.725418e+05   6.917279e+02   -5.255293e+03
5.760493e+00   7.762828e+02   -9.005270e+02	2.997406e+04   1.734393e+05   6.330019e+02   -5.295794e+03
5.800045e+00   7.615296e+02   -9.002614e+02	2.994128e+04   1.744340e+05   5.018308e+02   -5.242387e+03
5.839597e+00   7.666323e+02   -9.020026e+02	2.985294e+04   1.751019e+05   4.075732e+02   -5.287268e+03
5.879149e+00   7.678911e+02   -9.031265e+02	2.979314e+04   1.759315e+05   3.652296e+02   -5.328071e+03
5.918701e+00   7.933230e+02   -9.114993e+02	2.975478e+04   1.768838e+05   3.097400e+02   -5.491038e+03
5.958253e+00   7.624241e+02   -8.996378e+02	2.972241e+04   1.778645e+05   2.762000e+02   -5.352718e+03
5.997805e+00   7.506950e+02   -9.034637e+02	2.966189e+04   1.786775e+05   1.263019e+02   -5.313978e+03
6.037358e+00   7.536888e+02   -9.104841e+02	2.960725e+04   1.795225e+05   -3.846206e+00   -5.348197e+03
6.076910e+00   7.691383e+02   -9.057528e+02	2.952063e+04   1.801651e+05   -1.920648e+02   -5.469446e+03
6.116462e+00   7.792233e+02   -9.035561e+02	2.945625e+04   1.809381e+05   -3.040922e+02   -5.561333e+03
6.156014e+00   7.542113e+02   -9.030408e+02	2.939209e+04   1.817076e+05   -4.529733e+02   -5.458021e+03
6.195566e+00   7.568523e+02   -9.033231e+02	2.935729e+04   1.826541e+05   -5.626074e+02   -5.485963e+03
6.235118e+00   7.717773e+02   -9.016441e+02	2.929597e+04   1.834312e+05   -6.214708e+02   -5.610810e+03
6.274670e+00   7.824439e+02   -9.471016e+02	2.924170e+04   1.842595e+05   -7.155192e+02   -5.639927e+03
6.314222e+00   7.636627e+02   -1.124161e+03	2.921906e+04   1.853242e+05   -8.263497e+02   -5.382951e+03
6.353775e+00   7.514481e+02   -1.165407e+03	2.915209e+04   1.860653e+05   -9.386352e+02   -5.276815e+03
6.393327e+00   7.308456e+02   -1.164222e+03	2.909390e+04   1.868478e+05   -1.133736e+03   -5.187038e+03
6.432879e+00   7.231387e+02   -1.163601e+03	2.907324e+04   1.878642e+05   -1.247769e+03   -5.163572e+03
6.472431e+00   7.218363e+02   -1.162991e+03	2.904180e+04   1.888113e+05   -1.395816e+03   -5.183985e+03
6.511983e+00   7.020183e+02   -1.161310e+03	2.904173e+04   1.899601e+05   -1.581584e+03   -5.086436e+03
6.551535e+00   6.929399e+02   -1.152014e+03	2.900802e+04   1.908843e+05   -1.727065e+03   -5.058568e+03
6.591087e+00   6.821152e+02   -1.159152e+03	2.895615e+04   1.916940e+05   -1.958088e+03   -5.015403e+03
6.630639e+00   6.751848e+02   -1.150698e+03	2.894030e+04   1.927311e+05   -2.074840e+03   -5.000163e+03
6.670192e+00   6.643658e+02   -1.148651e+03	2.892788e+04   1.937929e+05   -2.190500e+03   -4.970190e+03
6.709744e+00   6.566385e+02   -1.150188e+03	2.887127e+04   1.945583e+05   -2.302947e+03   -4.937775e+03
6.749296e+00   6.323285e+02   -1.142494e+03	2.884766e+04   1.955391e+05   -2.552025e+03   -4.815902e+03
6.788848e+00   6.270310e+02   -1.140454e+03	2.883412e+04   1.965883e+05   -2.720193e+03   -4.820534e+03
6.828400e+00   6.419052e+02   -1.144221e+03	2.878645e+04   1.974047e+05   -2.830697e+03   -4.930284e+03
6.867952e+00   6.082645e+02   -1.133531e+03	2.876502e+04   1.983929e+05   -3.022300e+03   -4.741227e+03
6.907504e+00   6.123489e+02   -1.132798e+03	2.874218e+04   1.993725e+05   -3.128880e+03   -4.795013e+03
6.947056e+00   6.029596e+02   -1.135012e+03	2.870851e+04   2.002773e+05   -3.318208e+03   -4.758797e+03
6.986609e+00   5.971230e+02   -1.133997e+03	2.869143e+04   2.012932e+05   -3.377135e+03   -4.734793e+03
7.026161e+00   5.991448e+02   -1.134290e+03	2.866812e+04   2.022650e+05   -3.483434e+03   -4.777384e+03
7.065713e+00   5.854532e+02   -1.128181e+03	2.865034e+04   2.032715e+05   -3.667303e+03   -4.713395e+03
7.105265e+00   5.782353e+02   -1.127738e+03	2.859702e+04   2.040262e+05   -3.860444e+03   -4.682536e+03
7.144817e+00   5.735405e+02   -1.128323e+03	2.856114e+04   2.049026e+05   -4.008038e+03   -4.678597e+03
7.184369e+00   5.540259e+02   -1.124511e+03	2.858668e+04   2.062137e+05   -4.170756e+03   -4.572455e+03
7.223921e+00   5.607742e+02   -1.127776e+03	2.853973e+04   2.070080e+05   -4.357333e+03   -4.645153e+03
7.263474e+00   5.527473e+02   -1.125063e+03	2.851929e+04   2.079867e+05   -4.459007e+03   -4.608921e+03
7.303026e+00   5.457097e+02   -1.118562e+03	2.846865e+04   2.087428e+05   -4.650283e+03   -4.586381e+03
7.342578e+00   5.433488e+02   -1.117213e+03	2.843469e+04   2.096200e+05   -4.822645e+03   -4.597543e+03
7.382130e+00   5.360031e+02   -1.115217e+03	2.840945e+04   2.105583e+05   -4.997703e+03   -4.564974e+03
7.421682e+00   5.236761e+02   -1.116939e+03	2.837966e+04   2.114627e+05   -5.170681e+03   -4.502941e+03
7.461234e+00   5.234048e+02   -1.117442e+03	2.835866e+04   2.124291e+05   -5.327267e+03   -4.519364e+03
7.500786e+00   5.279126e+02   -1.110804e+03	2.833037e+04   2.133350e+05   -5.509524e+03   -4.585087e+03
7.540338e+00   5.073774e+02   -1.111513e+03	2.830918e+04   2.142985e+05   -5.718943e+03   -4.461922e+03
7.579891e+00   5.143636e+02   -1.111831e+03	2.827549e+04   2.151632e+05   -5.819702e+03   -4.534241e+03
7.619443e+00   5.053404e+02   -1.110484e+03	2.824822e+04   2.160730e+05   -5.961517e+03   -4.501499e+03
7.658995e+00   4.852210e+02   -1.101223e+03	2.823153e+04   2.170595e+05   -6.101946e+03   -4.361426e+03
7.698547e+00   4.869428e+02   -1.103840e+03	2.818344e+04   2.178078e+05   -6.289126e+03   -4.401591e+03
7.738099e+00   4.752499e+02   -1.100046e+03	2.815658e+04   2.187146e+05   -6.408859e+03   -4.336279e+03
7.777651e+00   4.809384e+02   -1.101180e+03	2.812503e+04   2.195829e+05   -6.543030e+03   -4.398656e+03
7.817203e+00   4.936761e+02   -1.105672e+03	2.805052e+04   2.201152e+05   -6.757606e+03   -4.515581e+03
7.856755e+00   4.898649e+02   -1.097926e+03	2.804858e+04   2.212070e+05   -6.928822e+03   -4.511851e+03
7.896308e+00   4.718551e+02   -1.101540e+03	2.804171e+04   2.222644e+05   -7.074645e+03   -4.397212e+03
7.935860e+00   4.732676e+02   -1.095113e+03	2.800567e+04   2.230853e+05   -7.302615e+03   -4.433403e+03
7.975412e+00   4.604516e+02   -1.095421e+03	2.797107e+04   2.239176e+05   -7.457993e+03   -4.350914e+03
8.014964e+00   4.473757e+02   -1.089546e+03	2.796290e+04   2.249576e+05   -7.621670e+03   -4.272680e+03
8.054516e+00   4.681907e+02   -1.097728e+03	2.794433e+04   2.259174e+05   -7.815610e+03   -4.459429e+03
8.094068e+00   4.732140e+02   -1.094664e+03	2.793467e+04   2.269423e+05   -7.999361e+03   -4.523798e+03
8.133620e+00   4.690699e+02   -1.091169e+03	2.788226e+04   2.276209e+05   -8.169150e+03   -4.514689e+03
8.173172e+00   4.540616e+02   -1.097279e+03	2.784277e+04   2.284047e+05   -8.272383e+03   -4.414809e+03
8.212725e+00   4.210919e+02   -1.083990e+03	2.781010e+04   2.292326e+05   -8.408298e+03   -4.181349e+03
8.252277e+00   4.214485e+02   -1.077507e+03	2.777293e+04   2.300225e+05   -8.547384e+03   -4.189884e+03
8.291829e+00   4.315624e+02   -1.087381e+03	2.775212e+04   2.309541e+05   -8.695424e+03   -4.295820e+03
8.331381e+00   4.332556e+02   -1.084797e+03	2.772579e+04   2.318325e+05   -8.843170e+03   -4.338024e+03
8.370933e+00   4.238508e+02   -1.076408e+03	2.770182e+04   2.327244e+05   -9.052998e+03   -4.276424e+03
8.410485e+00   4.311626e+02   -1.080485e+03	2.766375e+04   2.335024e+05   -9.182911e+03   -4.356977e+03
8.450037e+00   4.244301e+02   -1.081143e+03	2.762016e+04   2.342296e+05   -9.262951e+03   -4.324985e+03
8.489589e+00   4.358610e+02   -1.083270e+03	2.757042e+04   2.349007e+05   -9.436913e+03   -4.430683e+03
8.529142e+00   4.242274e+02   -1.078194e+03	2.756172e+04   2.359150e+05   -9.603790e+03   -4.352798e+03
8.568694e+00   4.165726e+02   -1.076385e+03	2.754491e+04   2.368617e+05   -9.778528e+03   -4.311396e+03
8.608246e+00   4.079666e+02   -1.072821e+03	2.751661e+04   2.377072e+05   -9.972466e+03   -4.275595e+03
8.647798e+00   4.086212e+02   -1.072176e+03	2.749429e+04   2.386012e+05   -1.012169e+04   -4.288890e+03
8.687350e+00   4.011378e+02   -1.072216e+03	2.745602e+04   2.393578e+05   -1.029043e+04   -4.240797e+03
8.726902e+00   3.916678e+02   -1.069085e+03	2.742470e+04   2.401699e+05   -1.044928e+04   -4.181988e+03
8.766454e+00   3.961981e+02   -1.066353e+03	2.737734e+04   2.408379e+05   -1.059436e+04   -4.247529e+03
8.806006e+00   3.901553e+02   -1.064826e+03	2.737387e+04   2.418903e+05   -1.074732e+04   -4.218516e+03
8.845559e+00   3.747599e+02   -1.061494e+03	2.733220e+04   2.426040e+05   -1.086920e+04   -4.099465e+03
8.885111e+00   3.773248e+02   -1.059034e+03	2.727155e+04   2.431452e+05   -1.101736e+04   -4.137105e+03
8.924663e+00   3.787474e+02   -1.063150e+03	2.726141e+04   2.441362e+05   -1.116389e+04   -4.165502e+03
8.964215e+00   3.706944e+02   -1.063977e+03	2.722103e+04   2.448526e+05   -1.136340e+04   -4.115530e+03
9.003767e+00   3.724542e+02   -1.058444e+03	2.717938e+04   2.455532e+05   -1.151836e+04   -4.154653e+03
9.043319e+00   3.834171e+02   -1.057718e+03	2.712792e+04   2.461628e+05   -1.168258e+04   -4.264881e+03
9.082871e+00   3.774410e+02   -1.058136e+03	2.709059e+04   2.468968e+05   -1.180926e+04   -4.235782e+03
9.122424e+00   3.668481e+02   -1.054440e+03	2.707586e+04   2.478342e+05   -1.193899e+04   -4.159649e+03
9.161976e+00   3.528374e+02   -1.049263e+03	2.702882e+04   2.484719e+05   -1.209931e+04   -4.045039e+03
9.201528e+00   3.622426e+02   -1.055631e+03	2.699444e+04   2.492280e+05   -1.227587e+04   -4.142308e+03
9.241080e+00   3.647582e+02   -1.054656e+03	2.697023e+04   2.500718e+05   -1.241412e+04   -4.196777e+03
9.280632e+00   3.751151e+02   -1.053025e+03	2.692201e+04   2.506910e+05   -1.253937e+04   -4.302346e+03
9.320184e+00   3.710811e+02   -1.047981e+03	2.687864e+04   2.513499e+05   -1.275518e+04   -4.291435e+03
9.359736e+00   3.521089e+02   -1.045747e+03	2.685102e+04   2.521542e+05   -1.286926e+04   -4.131277e+03
9.399288e+00   3.602841e+02   -1.047887e+03	2.678570e+04   2.526038e+05   -1.297716e+04   -4.227132e+03
9.438841e+00   3.474716e+02   -1.039328e+03	2.678051e+04   2.536106e+05   -1.318960e+04   -4.116229e+03
9.478393e+00   3.462806e+02   -1.044049e+03	2.676805e+04   2.545547e+05   -1.336023e+04   -4.136447e+03
9.517945e+00   3.620037e+02   -1.044534e+03	2.670740e+04   2.550382e+05   -1.352481e+04   -4.302303e+03
9.557497e+00   3.406501e+02   -1.036191e+03	2.669103e+04   2.559331e+05   -1.367770e+04   -4.123590e+03
9.597049e+00   3.307892e+02   -1.031508e+03	2.662589e+04   2.563618e+05   -1.381118e+04   -4.038898e+03
9.636601e+00   3.242137e+02   -1.033804e+03	2.660110e+04   2.571788e+05   -1.399811e+04   -3.993210e+03
9.676153e+00   3.401504e+02   -1.039803e+03	2.657863e+04   2.580172e+05   -1.414465e+04   -4.163315e+03
9.715705e+00   3.572580e+02   -1.037623e+03	2.654909e+04   2.587807e+05   -1.422716e+04   -4.339813e+03
9.755258e+00   3.560845e+02   -1.037109e+03	2.651422e+04   2.594903e+05   -1.439180e+04   -4.351964e+03
9.794810e+00   3.415461e+02   -1.037031e+03	2.646658e+04   2.600736e+05   -1.454103e+04   -4.217505e+03
9.834362e+00   3.317316e+02   -1.033978e+03	2.643128e+04   2.607726e+05   -1.468808e+04   -4.150571e+03
9.873914e+00   3.255119e+02   -1.020940e+03	2.637476e+04   2.612535e+05   -1.487098e+04   -4.111033e+03
9.913466e+00   3.230273e+02   -1.027006e+03	2.633818e+04   2.619392e+05   -1.504630e+04   -4.101777e+03
9.953018e+00   3.224983e+02   -1.024180e+03	2.631856e+04   2.627839e+05   -1.518201e+04   -4.112238e+03
9.992570e+00   3.069751e+02   -1.020656e+03	2.628376e+04   2.634760e+05   -1.533347e+04   -3.980051e+03
1.003212e+01   3.004664e+02   -1.017247e+03	2.624139e+04   2.640894e+05   -1.544863e+04   -3.936848e+03
1.007167e+01   3.031944e+02   -1.013217e+03	2.617050e+04   2.644124e+05   -1.564963e+04   -3.978473e+03
1.011123e+01   3.220359e+02   -1.021768e+03	2.614391e+04   2.651831e+05   -1.580431e+04   -4.174398e+03
1.015078e+01   3.343516e+02   -1.015154e+03	2.610694e+04   2.658383e+05   -1.587318e+04   -4.313219e+03
1.019033e+01   3.309847e+02   -1.026726e+03	2.610092e+04   2.668179e+05   -1.605939e+04   -4.298370e+03
1.022988e+01   3.161851e+02   -1.018195e+03	2.606334e+04   2.674613e+05   -1.622523e+04   -4.175939e+03
1.026944e+01   3.254668e+02   -1.015408e+03	2.602987e+04   2.681469e+05   -1.631813e+04   -4.268678e+03
1.030899e+01   3.126655e+02   -1.008050e+03	2.599294e+04   2.687933e+05   -1.649718e+04   -4.161886e+03
1.034854e+01   3.248641e+02   -1.019012e+03	2.592226e+04   2.690966e+05   -1.661508e+04   -4.310332e+03
1.038809e+01   3.171528e+02   -1.010748e+03	2.589117e+04   2.697947e+05   -1.676913e+04   -4.248071e+03
1.042764e+01   2.930901e+02   -1.004741e+03	2.588533e+04   2.707553e+05   -1.691191e+04   -4.014405e+03
1.046720e+01   2.984575e+02   -1.004623e+03	2.586086e+04   2.715239e+05   -1.701548e+04   -4.085243e+03
1.050675e+01   2.924424e+02   -1.004164e+03	2.583472e+04   2.722718e+05   -1.722968e+04   -4.034428e+03
1.054630e+01   2.847669e+02   -1.002204e+03	2.578310e+04   2.727491e+05   -1.737218e+04   -3.973204e+03
1.058585e+01   2.945920e+02   -1.002175e+03	2.572830e+04   2.731904e+05   -1.747826e+04   -4.096556e+03
1.062540e+01   3.019448e+02   -1.004251e+03	2.571257e+04   2.740417e+05   -1.766511e+04   -4.183163e+03
1.066496e+01   3.107613e+02   -1.006046e+03	2.567140e+04   2.746211e+05   -1.780782e+04   -4.291489e+03
1.070451e+01   3.120121e+02   -1.003745e+03	2.559600e+04   2.748290e+05   -1.793737e+04   -4.323189e+03
1.074406e+01   3.015581e+02   -9.977621e+02	2.553496e+04   2.751832e+05   -1.806470e+04   -4.225754e+03
1.078361e+01   2.890325e+02   -9.915230e+02	2.551373e+04   2.759617e+05   -1.819351e+04   -4.108808e+03
1.082316e+01   2.921354e+02   -9.942312e+02	2.549884e+04   2.768112e+05   -1.836465e+04   -4.161043e+03
1.086272e+01   2.961076e+02   -9.944980e+02	2.544903e+04   2.772796e+05   -1.849985e+04   -4.213551e+03
1.090227e+01   2.686164e+02   -9.905270e+02	2.542374e+04   2.780094e+05   -1.863954e+04   -3.936702e+03
1.094182e+01   2.690872e+02   -9.872551e+02	2.535904e+04   2.783061e+05   -1.872440e+04   -3.952384e+03
1.098137e+01   2.703796e+02   -9.895548e+02	2.533505e+04   2.790476e+05   -1.890900e+04   -3.988345e+03
1.102093e+01   2.772433e+02   -9.823407e+02	2.529517e+04   2.796063e+05   -1.907808e+04   -4.071652e+03
1.106048e+01   2.936026e+02   -9.911270e+02	2.525756e+04   2.801968e+05   -1.921674e+04   -4.272985e+03
1.110003e+01   2.971910e+02   -9.879901e+02	2.522363e+04   2.808184e+05   -1.936751e+04   -4.323322e+03
1.113958e+01   2.871708e+02   -9.820835e+02	2.520943e+04   2.816546e+05   -1.947476e+04   -4.230420e+03
1.117913e+01   2.701939e+02   -9.811629e+02	2.517348e+04   2.822499e+05   -1.962940e+04   -4.060571e+03
1.121869e+01   2.691416e+02   -9.791534e+02	2.513389e+04   2.828007e+05   -1.976124e+04   -4.050101e+03
1.125824e+01   2.616174e+02   -9.792018e+02	2.507541e+04   2.831377e+05   -1.990247e+04   -3.982656e+03
1.129779e+01   2.647525e+02   -9.817063e+02	2.503187e+04   2.836403e+05   -2.007937e+04   -4.048982e+03
1.133734e+01   2.699238e+02   -9.729794e+02	2.499904e+04   2.842533e+05   -2.017357e+04   -4.107226e+03
1.137689e+01   2.548187e+02   -9.715789e+02	2.496129e+04   2.848129e+05   -2.036294e+04   -3.963009e+03
1.141645e+01   2.516613e+02   -9.657874e+02	2.490256e+04   2.851265e+05   -2.045346e+04   -3.934867e+03
1.145600e+01   2.534809e+02   -9.683541e+02	2.483943e+04   2.853904e+05   -2.056827e+04   -3.971346e+03
1.149555e+01   2.755702e+02   -9.735682e+02	2.480708e+04   2.860050e+05   -2.072871e+04   -4.228504e+03
1.153510e+01   2.738174e+02   -9.714717e+02	2.478342e+04   2.867124e+05   -2.088484e+04   -4.227395e+03
1.157466e+01   2.711830e+02   -9.695268e+02	2.472431e+04   2.870080e+05   -2.098415e+04   -4.206979e+03
1.161421e+01   2.591574e+02   -9.646173e+02	2.467619e+04   2.874256e+05   -2.111325e+04   -4.093053e+03
1.165376e+01   2.609818e+02   -9.622860e+02	2.462084e+04   2.877551e+05   -2.121408e+04   -4.122766e+03
1.169331e+01   2.611344e+02   -9.630157e+02	2.460187e+04   2.885084e+05   -2.135447e+04   -4.135140e+03
1.173286e+01   2.704561e+02   -9.606875e+02	2.456713e+04   2.890729e+05   -2.149944e+04   -4.259459e+03
1.177242e+01   2.716096e+02   -9.641357e+02	2.456309e+04   2.899999e+05   -2.164477e+04   -4.287700e+03
1.181197e+01   2.511118e+02   -9.562149e+02	2.452530e+04   2.905211e+05   -2.178956e+04   -4.068789e+03
1.185152e+01   2.580408e+02   -9.619784e+02	2.447555e+04   2.909056e+05   -2.192470e+04   -4.164745e+03
1.189107e+01   2.607285e+02   -9.553130e+02	2.443693e+04   2.914113e+05   -2.210428e+04   -4.207587e+03
1.193062e+01   2.547961e+02   -9.480614e+02	2.433909e+04   2.912077e+05   -2.220813e+04   -4.148835e+03
1.197018e+01   2.578785e+02   -9.512672e+02	2.430885e+04   2.918106e+05   -2.232524e+04   -4.198091e+03
1.200973e+01   2.603222e+02   -9.512604e+02	2.427198e+04   2.923292e+05   -2.241271e+04   -4.240839e+03
1.204928e+01   2.538190e+02   -9.500556e+02	2.423760e+04   2.928762e+05   -2.258577e+04   -4.184261e+03
1.208883e+01   2.474847e+02   -9.441905e+02	2.417894e+04   2.931218e+05   -2.269078e+04   -4.111244e+03
1.212839e+01   2.481497e+02   -9.408621e+02	2.412306e+04   2.933992e+05   -2.280764e+04   -4.134628e+03
1.216794e+01   2.458768e+02   -9.372224e+02	2.408168e+04   2.938487e+05   -2.291211e+04   -4.130528e+03
1.220749e+01   2.432305e+02   -9.413499e+02	2.403354e+04   2.942173e+05   -2.307011e+04   -4.113512e+03
1.224704e+01   2.447004e+02   -9.373298e+02	2.401638e+04   2.949549e+05   -2.318820e+04   -4.131631e+03
1.228659e+01   2.442231e+02   -9.399258e+02	2.400160e+04   2.957258e+05   -2.336037e+04   -4.144023e+03
1.232615e+01   2.407005e+02   -9.357358e+02	2.395123e+04   2.960523e+05   -2.349799e+04   -4.114715e+03
1.236570e+01   2.390643e+02   -9.368373e+02	2.390039e+04   2.963729e+05   -2.361934e+04   -4.110466e+03
1.240525e+01   2.254632e+02   -9.313072e+02	2.387756e+04   2.970317e+05   -2.371777e+04   -3.952919e+03
1.244480e+01   2.343083e+02   -9.282521e+02	2.383500e+04   2.974448e+05   -2.381441e+04   -4.068268e+03
1.248435e+01   2.351741e+02   -9.301794e+02	2.377448e+04   2.976347e+05   -2.392136e+04   -4.097629e+03
1.252391e+01   2.343545e+02   -9.348783e+02	2.372272e+04   2.979309e+05   -2.405004e+04   -4.110882e+03
1.256346e+01   2.407357e+02   -9.288077e+02	2.370235e+04   2.986090e+05   -2.414875e+04   -4.192618e+03
1.260301e+01   2.280914e+02   -9.217356e+02	2.365158e+04   2.989032e+05   -2.426750e+04   -4.051909e+03
1.264256e+01   2.138468e+02   -9.181928e+02	2.362811e+04   2.995399e+05   -2.442630e+04   -3.890483e+03
1.268211e+01   2.252869e+02   -9.201204e+02	2.353835e+04   2.993388e+05   -2.453776e+04   -4.037724e+03
1.272167e+01   2.402310e+02   -9.181818e+02	2.347002e+04   2.993997e+05   -2.463045e+04   -4.230878e+03
1.276122e+01   2.273313e+02   -9.192724e+02	2.341655e+04   2.996483e+05   -2.477281e+04   -4.090916e+03
1.280077e+01   2.298423e+02   -9.107650e+02	2.338264e+04   3.001336e+05   -2.486039e+04   -4.125373e+03
1.284032e+01   2.214875e+02   -9.132901e+02	2.334184e+04   3.005383e+05   -2.498282e+04   -4.036962e+03
1.287988e+01   2.105261e+02   -9.083428e+02	2.329262e+04   3.008256e+05   -2.510389e+04   -3.909913e+03
1.291943e+01   2.203449e+02   -9.047265e+02	2.324922e+04   3.011830e+05   -2.519677e+04   -4.046436e+03
1.295898e+01   2.205103e+02   -9.065137e+02	2.322632e+04   3.018083e+05   -2.536084e+04   -4.058132e+03
1.299853e+01   2.176031e+02   -9.049993e+02	2.318234e+04   3.021553e+05   -2.547231e+04   -4.036067e+03
1.303808e+01   2.123365e+02   -8.991153e+02	2.314622e+04   3.025975e+05   -2.560375e+04   -3.977876e+03
1.307764e+01   2.143520e+02   -9.017466e+02	2.312239e+04   3.032044e+05   -2.571662e+04   -4.015703e+03
1.311719e+01   2.222659e+02   -9.037008e+02	2.308564e+04   3.036385e+05   -2.581521e+04   -4.133338e+03
1.315674e+01   2.293088e+02   -9.011622e+02	2.301050e+04   3.035620e+05   -2.588584e+04   -4.241737e+03
1.319629e+01   2.358431e+02   -9.010915e+02	2.297658e+04   3.040250e+05   -2.600191e+04   -4.336820e+03