TITLE = "Grid: prim/mr_v4.2_no_tail_wing_v2_wing_set_0.17_targ_coarse_lvl_2.grid, Pointdata: sol/sol.pval.unsteady_i=1600_t=3.2000000e-01" 
VARIABLES = "Y", fx, fy, fz, mx, my, mz
#
# Force distributions of the components 
#
ZONE T="DISTR      Wing", F=POINT 
1.923936e+00   0.000000e+00   0.000000e+00	0.000000e+00   0.000000e+00   0.000000e+00   0.000000e+00
1.963488e+00   2.667560e+03   -4.287122e+02	3.707126e+04   7.349082e+04   1.854361e+04   -6.014422e+03
2.003041e+00   2.605507e+03   -4.046967e+02	3.718517e+04   7.518762e+04   1.830256e+04   -6.067107e+03
2.042593e+00   2.490283e+03   -3.926330e+02	3.727542e+04   7.684306e+04   1.819786e+04   -6.027355e+03
2.082145e+00   2.380703e+03   -3.837755e+02	3.742431e+04   7.862696e+04   1.811661e+04   -5.971286e+03
2.121697e+00   2.279904e+03   -3.851879e+02	3.751058e+04   8.029214e+04   1.801568e+04   -5.908517e+03
2.161249e+00   2.220047e+03   -3.839301e+02	3.760051e+04   8.197284e+04   1.788248e+04   -5.914014e+03
2.200801e+00   2.180281e+03   -3.883141e+02	3.763086e+04   8.352795e+04   1.762635e+04   -5.934132e+03
2.240353e+00   2.077535e+03   -3.936048e+02	3.766005e+04   8.508315e+04   1.746272e+04   -5.841806e+03
2.279905e+00   2.015039e+03   -3.862049e+02	3.766878e+04   8.659293e+04   1.733604e+04   -5.814879e+03
2.319458e+00   1.935870e+03   -3.814625e+02	3.769369e+04   8.814088e+04   1.721052e+04   -5.776581e+03
2.359010e+00   1.918849e+03   -3.899711e+02	3.768564e+04   8.961455e+04   1.700220e+04   -5.810209e+03
2.398562e+00   1.886173e+03   -3.988866e+02	3.773215e+04   9.121644e+04   1.686180e+04   -5.809058e+03
2.438114e+00   1.906558e+03   -4.047451e+02	3.770942e+04   9.265350e+04   1.671227e+04   -5.930239e+03
2.477666e+00   1.839427e+03   -4.032041e+02	3.765956e+04   9.402271e+04   1.656232e+04   -5.875160e+03
2.517218e+00   1.809291e+03   -4.189569e+02	3.764355e+04   9.547303e+04   1.644588e+04   -5.841934e+03
2.556770e+00   1.719542e+03   -4.125278e+02	3.764942e+04   9.697598e+04   1.643861e+04   -5.725216e+03
2.596322e+00   1.664481e+03   -4.217558e+02	3.764763e+04   9.845952e+04   1.633603e+04   -5.672676e+03
2.635875e+00   1.627162e+03   -4.215945e+02	3.761439e+04   9.986113e+04   1.624804e+04   -5.647365e+03
2.675427e+00   1.621414e+03   -4.447865e+02	3.758902e+04   1.012821e+05   1.613306e+04   -5.668523e+03
2.714979e+00   1.582395e+03   -4.525016e+02	3.755115e+04   1.026666e+05   1.602518e+04   -5.608959e+03
2.754531e+00   1.558011e+03   -4.595084e+02	3.750141e+04   1.040151e+05   1.584362e+04   -5.611214e+03
2.794083e+00   1.533205e+03   -4.618685e+02	3.746169e+04   1.053851e+05   1.574183e+04   -5.615278e+03
2.833635e+00   1.535748e+03   -4.736075e+02	3.745144e+04   1.068381e+05   1.573025e+04   -5.650245e+03
2.873187e+00   1.493809e+03   -4.889834e+02	3.739486e+04   1.081587e+05   1.554060e+04   -5.578574e+03
2.912739e+00   1.465313e+03   -4.935078e+02	3.733653e+04   1.094670e+05   1.551674e+04   -5.542724e+03
2.952292e+00   1.428392e+03   -5.015697e+02	3.729286e+04   1.108145e+05   1.544882e+04   -5.498222e+03
2.991844e+00   1.372541e+03   -5.033531e+02	3.725474e+04   1.121751e+05   1.530488e+04   -5.400656e+03
3.031396e+00   1.369358e+03   -5.119175e+02	3.715323e+04   1.133410e+05   1.510266e+04   -5.426154e+03
3.070948e+00   1.340077e+03   -5.229820e+02	3.711949e+04   1.147070e+05   1.508140e+04   -5.382762e+03
3.110500e+00   1.328836e+03   -5.335204e+02	3.711952e+04   1.161752e+05   1.503711e+04   -5.389206e+03
3.150052e+00   1.278624e+03   -5.466498e+02	3.707408e+04   1.175001e+05   1.498325e+04   -5.254763e+03
3.189604e+00   1.268761e+03   -5.613982e+02	3.701092e+04   1.187679e+05   1.486995e+04   -5.252514e+03
3.229156e+00   1.269307e+03   -5.694763e+02	3.696936e+04   1.200962e+05   1.476303e+04   -5.302203e+03
3.268709e+00   1.260162e+03   -5.815534e+02	3.692293e+04   1.214064e+05   1.465165e+04   -5.303345e+03
3.308261e+00   1.212280e+03   -5.857240e+02	3.691169e+04   1.228300e+05   1.463360e+04   -5.189493e+03
3.347813e+00   1.188664e+03   -5.918782e+02	3.682545e+04   1.240012e+05   1.445777e+04   -5.153470e+03
3.387365e+00   1.169548e+03   -6.152521e+02	3.677771e+04   1.252983e+05   1.439178e+04   -5.108700e+03
3.426917e+00   1.165317e+03   -6.175504e+02	3.677910e+04   1.267571e+05   1.431699e+04   -5.147437e+03
3.466469e+00   1.145846e+03   -6.288162e+02	3.672388e+04   1.280203e+05   1.428303e+04   -5.085982e+03
3.506021e+00   1.120222e+03   -6.402438e+02	3.665742e+04   1.292416e+05   1.421810e+04   -5.030680e+03
3.545574e+00   1.114276e+03   -6.480614e+02	3.661662e+04   1.305465e+05   1.409505e+04   -5.049408e+03
3.585126e+00   1.113200e+03   -6.674966e+02	3.657526e+04   1.318485e+05   1.402851e+04   -5.054176e+03
3.624678e+00   1.085733e+03   -6.788080e+02	3.650488e+04   1.330406e+05   1.391604e+04   -4.976617e+03
3.664230e+00   1.063559e+03   -6.848329e+02	3.644240e+04   1.342554e+05   1.372989e+04   -4.930982e+03
3.703782e+00   1.045619e+03   -6.962148e+02	3.639789e+04   1.355339e+05   1.366538e+04   -4.908975e+03
3.743334e+00   1.034621e+03   -6.984150e+02	3.635660e+04   1.368176e+05   1.357505e+04   -4.896235e+03
3.782886e+00   9.830063e+02   -7.098894e+02	3.629059e+04   1.380073e+05   1.353210e+04   -4.734637e+03
3.822438e+00   9.833559e+02   -7.224215e+02	3.627693e+04   1.393913e+05   1.341623e+04   -4.756396e+03
3.861991e+00   9.606978e+02   -7.325298e+02	3.622166e+04   1.406131e+05   1.336955e+04   -4.686926e+03
3.901543e+00   9.498674e+02   -7.404881e+02	3.614614e+04   1.417529e+05   1.318433e+04   -4.681406e+03
3.941095e+00   9.650479e+02   -7.510598e+02	3.609698e+04   1.429901e+05   1.311498e+04   -4.762114e+03
3.980647e+00   9.450699e+02   -7.583721e+02	3.603696e+04   1.441793e+05   1.299014e+04   -4.700727e+03
4.020199e+00   9.686457e+02   -7.718427e+02	3.599703e+04   1.454452e+05   1.285471e+04   -4.817244e+03
4.059751e+00   9.364956e+02   -7.848829e+02	3.595465e+04   1.467001e+05   1.272199e+04   -4.705301e+03
4.099303e+00   9.305552e+02   -7.973577e+02	3.590050e+04   1.479013e+05   1.256523e+04   -4.700293e+03
4.138855e+00   9.192264e+02   -8.021726e+02	3.585980e+04   1.491541e+05   1.251417e+04   -4.682518e+03
4.178408e+00   9.216675e+02   -8.099096e+02	3.578534e+04   1.502608e+05   1.235581e+04   -4.725870e+03
4.217960e+00   8.996016e+02   -8.131462e+02	3.570531e+04   1.513390e+05   1.222854e+04   -4.651249e+03
4.257512e+00   8.906279e+02   -8.334439e+02	3.567139e+04   1.526106e+05   1.212813e+04   -4.623167e+03
4.297064e+00   8.664250e+02   -8.400172e+02	3.561883e+04   1.537978e+05   1.199033e+04   -4.559704e+03
4.336616e+00   8.350193e+02   -8.474296e+02	3.558314e+04   1.550510e+05   1.188117e+04   -4.456245e+03
4.376168e+00   8.339717e+02   -8.572215e+02	3.552349e+04   1.561994e+05   1.174642e+04   -4.469317e+03
4.415720e+00   8.122227e+02   -8.670593e+02	3.543964e+04   1.572361e+05   1.165932e+04   -4.386801e+03
4.455272e+00   7.982695e+02   -8.781415e+02	3.536621e+04   1.583121e+05   1.159280e+04   -4.343771e+03
4.494825e+00   8.082527e+02   -8.843407e+02	3.533036e+04   1.595501e+05   1.151201e+04   -4.396773e+03
4.534377e+00   7.711817e+02   -8.931914e+02	3.530487e+04   1.608342e+05   1.142203e+04   -4.267448e+03
4.573929e+00   7.635334e+02   -8.959540e+02	3.525446e+04   1.619997e+05   1.126842e+04   -4.246555e+03
4.613481e+00   7.578198e+02   -9.061345e+02	3.524398e+04   1.633469e+05   1.124538e+04   -4.254159e+03
4.653033e+00   7.607071e+02   -9.168475e+02	3.515558e+04   1.643324e+05   1.115073e+04   -4.272873e+03
4.692585e+00   7.371680e+02   -9.129097e+02	3.506370e+04   1.652910e+05   1.092732e+04   -4.215422e+03
4.732137e+00   7.686825e+02   -9.260643e+02	3.502652e+04   1.665041e+05   1.084967e+04   -4.349334e+03
4.771689e+00   7.433855e+02   -9.357261e+02	3.493767e+04   1.674678e+05   1.065905e+04   -4.259243e+03
4.811242e+00   7.232260e+02   -9.428132e+02	3.489277e+04   1.686344e+05   1.048700e+04   -4.191165e+03
4.850794e+00   7.428050e+02   -9.562540e+02	3.483338e+04   1.697293e+05   1.035764e+04   -4.295134e+03
4.890346e+00   7.185086e+02   -9.569738e+02	3.478064e+04   1.708498e+05   1.027240e+04   -4.196259e+03
4.929898e+00   7.224417e+02   -9.719499e+02	3.474475e+04   1.720516e+05   1.023363e+04   -4.217181e+03
4.969450e+00   7.158647e+02   -9.729581e+02	3.467132e+04   1.730602e+05   1.011432e+04   -4.208184e+03
5.009002e+00   7.041001e+02   -9.791547e+02	3.461915e+04   1.741732e+05   9.888806e+03   -4.181218e+03
5.048554e+00   6.876032e+02   -9.809585e+02	3.457432e+04   1.753152e+05   9.718507e+03   -4.132495e+03
5.088106e+00   6.937937e+02   -9.846168e+02	3.453423e+04   1.764795e+05   9.622136e+03   -4.186499e+03
5.127659e+00   6.818974e+02   -9.909472e+02	3.446887e+04   1.775123e+05   9.529564e+03   -4.141849e+03
5.167211e+00   6.794769e+02   -1.005581e+03	3.442483e+04   1.786509e+05   9.405021e+03   -4.140166e+03
5.206763e+00   6.687475e+02   -1.008109e+03	3.437695e+04   1.797640e+05   9.320892e+03   -4.090563e+03
5.246315e+00   6.577996e+02   -1.016637e+03	3.431555e+04   1.808038e+05   9.132153e+03   -4.067344e+03
5.285867e+00   6.486422e+02   -1.020144e+03	3.425864e+04   1.818611e+05   8.987473e+03   -4.042336e+03
5.325419e+00   6.476747e+02   -1.022305e+03	3.418638e+04   1.828310e+05   8.916900e+03   -4.051142e+03
5.364971e+00   6.593500e+02   -1.022455e+03	3.412478e+04   1.838526e+05   8.834059e+03   -4.131841e+03
5.404524e+00   6.380546e+02   -1.031274e+03	3.404589e+04   1.847793e+05   8.597572e+03   -4.041528e+03
5.444076e+00   6.416489e+02   -1.037018e+03	3.397141e+04   1.857218e+05   8.388286e+03   -4.074382e+03
5.483628e+00   6.659712e+02   -1.045325e+03	3.391293e+04   1.867466e+05   8.295672e+03   -4.207510e+03
5.523180e+00   6.588523e+02   -1.046784e+03	3.388692e+04   1.879441e+05   8.176829e+03   -4.207236e+03
5.562732e+00   6.441301e+02   -1.047215e+03	3.381155e+04   1.888648e+05   8.010731e+03   -4.158308e+03
5.602284e+00   6.258164e+02   -1.050247e+03	3.373975e+04   1.898010e+05   7.890613e+03   -4.072020e+03
5.641836e+00   6.203365e+02   -1.049188e+03	3.368985e+04   1.908539e+05   7.712470e+03   -4.066034e+03
5.681388e+00   6.170953e+02   -1.051203e+03	3.362151e+04   1.917990e+05   7.587784e+03   -4.078148e+03
5.720941e+00   6.062610e+02   -1.055894e+03	3.355477e+04   1.927491e+05   7.450366e+03   -4.036890e+03
5.760493e+00   6.114557e+02   -1.059926e+03	3.350497e+04   1.937895e+05   7.347158e+03   -4.075764e+03
5.800045e+00   5.970597e+02   -1.060052e+03	3.346913e+04   1.949067e+05   7.172812e+03   -4.019099e+03
5.839597e+00   6.018450e+02   -1.061948e+03	3.337964e+04   1.957080e+05   7.038449e+03   -4.057407e+03
5.879149e+00   6.041783e+02   -1.062570e+03	3.332186e+04   1.966892e+05   6.952819e+03   -4.100347e+03
5.918701e+00   6.293122e+02   -1.070810e+03	3.328296e+04   1.977784e+05   6.851578e+03   -4.257468e+03
5.958253e+00   6.001543e+02   -1.059933e+03	3.324882e+04   1.988888e+05   6.772089e+03   -4.123391e+03
5.997805e+00   5.884668e+02   -1.063420e+03	3.318657e+04   1.998313e+05   6.576756e+03   -4.080937e+03
6.037358e+00   5.930341e+02   -1.070601e+03	3.312849e+04   2.007956e+05   6.395253e+03   -4.119247e+03
6.076910e+00   6.091216e+02   -1.066076e+03	3.303889e+04   2.015599e+05   6.158524e+03   -4.240027e+03
6.116462e+00   6.201662e+02   -1.063737e+03	3.297281e+04   2.024618e+05   6.005993e+03   -4.333031e+03
6.156014e+00   5.955514e+02   -1.063393e+03	3.290935e+04   2.033753e+05   5.813420e+03   -4.227824e+03
6.195566e+00   5.994630e+02   -1.064156e+03	3.287468e+04   2.044624e+05   5.657773e+03   -4.258255e+03
6.235118e+00   6.140908e+02   -1.061594e+03	3.280963e+04   2.053554e+05   5.561415e+03   -4.377861e+03
6.274670e+00   6.271721e+02   -1.104485e+03	3.275743e+04   2.063363e+05   5.421565e+03   -4.419067e+03
6.314222e+00   6.086866e+02   -1.271745e+03	3.273296e+04   2.075283e+05   5.269281e+03   -4.164777e+03
6.353775e+00   5.963597e+02   -1.309413e+03	3.265939e+04   2.083665e+05   5.102735e+03   -4.057335e+03
6.393327e+00   5.756918e+02   -1.308625e+03	3.260159e+04   2.092907e+05   4.865715e+03   -3.962717e+03
6.432879e+00   5.690003e+02   -1.307835e+03	3.258001e+04   2.104404e+05   4.706715e+03   -3.942475e+03
6.472431e+00   5.694232e+02   -1.307400e+03	3.254242e+04   2.114866e+05   4.509991e+03   -3.968687e+03
6.511983e+00   5.499919e+02   -1.305698e+03	3.254094e+04   2.127649e+05   4.284570e+03   -3.869494e+03
6.551535e+00   5.418194e+02   -1.296529e+03	3.250516e+04   2.138144e+05   4.095935e+03   -3.843259e+03
6.591087e+00   5.333120e+02   -1.304581e+03	3.245054e+04   2.147451e+05   3.808541e+03   -3.810114e+03
6.630639e+00   5.273840e+02   -1.296046e+03	3.243632e+04   2.159314e+05   3.649247e+03   -3.797383e+03
6.670192e+00   5.186234e+02   -1.294166e+03	3.242292e+04   2.171254e+05   3.479386e+03   -3.777815e+03
6.709744e+00   5.131965e+02   -1.296218e+03	3.236505e+04   2.180211e+05   3.317210e+03   -3.755892e+03
6.749296e+00   4.897947e+02   -1.288491e+03	3.233670e+04   2.191084e+05   3.024313e+03   -3.636303e+03
6.788848e+00   4.853869e+02   -1.286819e+03	3.232173e+04   2.202862e+05   2.814073e+03   -3.642574e+03
6.828400e+00   5.033039e+02   -1.291296e+03	3.227759e+04   2.212654e+05   2.656448e+03   -3.768668e+03
6.867952e+00   4.675456e+02   -1.280150e+03	3.225486e+04   2.223830e+05   2.421586e+03   -3.562706e+03
6.907504e+00   4.736503e+02   -1.279437e+03	3.222634e+04   2.234616e+05   2.266884e+03   -3.626755e+03
6.947056e+00   4.646844e+02   -1.281462e+03	3.218995e+04   2.244857e+05   2.027503e+03   -3.590347e+03
6.986609e+00   4.606044e+02   -1.280924e+03	3.217616e+04   2.256628e+05   1.927652e+03   -3.574129e+03
7.026161e+00   4.636954e+02   -1.281804e+03	3.215154e+04   2.267638e+05   1.783144e+03   -3.619888e+03
7.065713e+00   4.531750e+02   -1.276594e+03	3.213401e+04   2.279105e+05   1.543915e+03   -3.573934e+03
7.105265e+00   4.449779e+02   -1.275114e+03	3.207270e+04   2.287462e+05   1.304011e+03   -3.534249e+03
7.144817e+00   4.414381e+02   -1.275801e+03	3.204079e+04   2.297888e+05   1.107011e+03   -3.535328e+03
7.184369e+00   4.221292e+02   -1.271880e+03	3.205912e+04   2.311861e+05   8.994212e+02   -3.427049e+03
7.223921e+00   4.290190e+02   -1.275255e+03	3.201048e+04   2.321060e+05   6.620472e+02   -3.498486e+03
7.263474e+00   4.226569e+02   -1.272413e+03	3.198450e+04   2.331820e+05   5.092587e+02   -3.470938e+03
7.303026e+00   4.174089e+02   -1.266137e+03	3.193167e+04   2.340596e+05   2.666054e+02   -3.458208e+03
7.342578e+00   4.157089e+02   -1.264713e+03	3.189475e+04   2.350524e+05   4.657601e+01   -3.471171e+03
7.382130e+00   4.102070e+02   -1.263725e+03	3.186942e+04   2.361277e+05   -1.715993e+02   -3.447901e+03
7.421682e+00   4.001132e+02   -1.265956e+03	3.184014e+04   2.371733e+05   -3.924318e+02   -3.398799e+03
7.461234e+00   4.022218e+02   -1.266254e+03	3.181319e+04   2.382323e+05   -5.960674e+02   -3.428918e+03
7.500786e+00   4.062592e+02   -1.260202e+03	3.178878e+04   2.393049e+05   -8.244793e+02   -3.490044e+03
7.540338e+00   3.865297e+02   -1.260859e+03	3.175971e+04   2.403458e+05   -1.085740e+03   -3.369297e+03
7.579891e+00   3.935706e+02   -1.260963e+03	3.172679e+04   2.413532e+05   -1.239313e+03   -3.439743e+03
7.619443e+00   3.850723e+02   -1.258926e+03	3.169554e+04   2.423694e+05   -1.431037e+03   -3.409902e+03
7.658995e+00   3.656776e+02   -1.250567e+03	3.168246e+04   2.435207e+05   -1.620251e+03   -3.272173e+03
7.698547e+00   3.690229e+02   -1.253171e+03	3.163127e+04   2.443819e+05   -1.850376e+03   -3.321219e+03
7.738099e+00   3.584243e+02   -1.249610e+03	3.160480e+04   2.454285e+05   -2.020735e+03   -3.261913e+03
7.777651e+00   3.640320e+02   -1.250354e+03	3.157295e+04   2.464313e+05   -2.200701e+03   -3.322486e+03
7.817203e+00   3.792543e+02   -1.255475e+03	3.149310e+04   2.470589e+05   -2.474978e+03   -3.455290e+03
7.856755e+00   3.769443e+02   -1.248080e+03	3.149427e+04   2.483117e+05   -2.684563e+03   -3.460278e+03
7.896308e+00   3.602099e+02   -1.251383e+03	3.147995e+04   2.494469e+05   -2.879487e+03   -3.353493e+03
7.935860e+00   3.638677e+02   -1.245737e+03	3.143907e+04   2.503659e+05   -3.161156e+03   -3.404440e+03
7.975412e+00   3.515188e+02   -1.245738e+03	3.140043e+04   2.513022e+05   -3.365894e+03   -3.323756e+03
8.014964e+00   3.405352e+02   -1.240485e+03	3.139128e+04   2.524705e+05   -3.578521e+03   -3.259073e+03
8.054516e+00   3.643432e+02   -1.249117e+03	3.136925e+04   2.535386e+05   -3.826577e+03   -3.467289e+03
8.094068e+00   3.711146e+02   -1.246265e+03	3.135579e+04   2.546688e+05   -4.054029e+03   -3.543715e+03
8.133620e+00   3.681987e+02   -1.243167e+03	3.130356e+04   2.554847e+05   -4.270690e+03   -3.541745e+03
8.173172e+00   3.530275e+02   -1.248389e+03	3.125736e+04   2.563491e+05   -4.425513e+03   -3.439806e+03
8.212725e+00   3.208980e+02   -1.235657e+03	3.122549e+04   2.573191e+05   -4.609267e+03   -3.211003e+03
8.252277e+00   3.223183e+02   -1.229123e+03	3.118452e+04   2.582132e+05   -4.797046e+03   -3.226725e+03
8.291829e+00   3.343058e+02   -1.239547e+03	3.116369e+04   2.592802e+05   -4.993526e+03   -3.345414e+03
8.331381e+00   3.366807e+02   -1.237079e+03	3.114099e+04   2.603242e+05   -5.186771e+03   -3.392085e+03
8.370933e+00   3.277716e+02   -1.228792e+03	3.111219e+04   2.613113e+05   -5.447393e+03   -3.333130e+03
8.410485e+00   3.352271e+02   -1.232102e+03	3.107476e+04   2.622295e+05   -5.628944e+03   -3.414182e+03
8.450037e+00   3.296786e+02   -1.233265e+03	3.102959e+04   2.630790e+05   -5.759800e+03   -3.389754e+03
8.489589e+00   3.418548e+02   -1.235474e+03	3.097196e+04   2.638184e+05   -5.982067e+03   -3.500872e+03
8.529142e+00   3.304128e+02   -1.230399e+03	3.095997e+04   2.649397e+05   -6.192767e+03   -3.422512e+03
8.568694e+00   3.260566e+02   -1.228892e+03	3.093913e+04   2.659867e+05   -6.419739e+03   -3.406541e+03
8.608246e+00   3.198513e+02   -1.225884e+03	3.091120e+04   2.669702e+05   -6.666280e+03   -3.389747e+03
8.647798e+00   3.235124e+02   -1.225513e+03	3.088816e+04   2.679930e+05   -6.863430e+03   -3.427124e+03
8.687350e+00   3.180299e+02   -1.226940e+03	3.084650e+04   2.688554e+05   -7.086861e+03   -3.394453e+03
8.726902e+00   3.075143e+02   -1.222660e+03	3.081529e+04   2.698023e+05   -7.287635e+03   -3.326388e+03
8.766454e+00   3.135445e+02   -1.219775e+03	3.076116e+04   2.705455e+05   -7.485717e+03   -3.404308e+03
8.806006e+00   3.070591e+02   -1.218285e+03	3.076133e+04   2.717643e+05   -7.686867e+03   -3.370758e+03
8.845559e+00   2.934005e+02   -1.216081e+03	3.071831e+04   2.726009e+05   -7.855486e+03   -3.264555e+03
8.885111e+00   2.955476e+02   -1.212534e+03	3.065339e+04   2.732380e+05   -8.052799e+03   -3.298929e+03
8.924663e+00   2.991829e+02   -1.216890e+03	3.063327e+04   2.742742e+05   -8.250740e+03   -3.344836e+03
8.964215e+00   2.936575e+02   -1.217932e+03	3.059101e+04   2.751078e+05   -8.501098e+03   -3.316388e+03
9.003767e+00   2.948707e+02   -1.212380e+03	3.055043e+04   2.759516e+05   -8.707529e+03   -3.350668e+03
9.043319e+00   3.069130e+02   -1.212201e+03	3.049971e+04   2.767019e+05   -8.916322e+03   -3.469173e+03
9.082871e+00   3.024901e+02   -1.212527e+03	3.046381e+04   2.775828e+05   -9.090796e+03   -3.453094e+03
9.122424e+00   2.939170e+02   -1.209644e+03	3.044595e+04   2.786257e+05   -9.272515e+03   -3.394203e+03
9.161976e+00   2.811499e+02   -1.204126e+03	3.039107e+04   2.793252e+05   -9.480844e+03   -3.290228e+03
9.201528e+00   2.919792e+02   -1.211032e+03	3.035600e+04   2.802087e+05   -9.710307e+03   -3.399486e+03
9.241080e+00   2.960458e+02   -1.210068e+03	3.032753e+04   2.811465e+05   -9.895186e+03   -3.467387e+03
9.280632e+00   3.082830e+02   -1.208344e+03	3.027529e+04   2.818617e+05   -1.007519e+04   -3.590587e+03
9.320184e+00   3.048469e+02   -1.203643e+03	3.023373e+04   2.826705e+05   -1.033836e+04   -3.584215e+03
9.359736e+00   2.852011e+02   -1.200780e+03	3.019990e+04   2.835496e+05   -1.049759e+04   -3.417890e+03
9.399288e+00   2.937130e+02   -1.203142e+03	3.013419e+04   2.841287e+05   -1.065512e+04   -3.517051e+03
9.438841e+00   2.839198e+02   -1.194617e+03	3.012374e+04   2.852185e+05   -1.091587e+04   -3.433070e+03
9.478393e+00   2.837073e+02   -1.199304e+03	3.010778e+04   2.862621e+05   -1.113137e+04   -3.462326e+03
9.517945e+00   3.012749e+02   -1.200886e+03	3.004470e+04   2.868555e+05   -1.134856e+04   -3.644635e+03
9.557497e+00   2.809977e+02   -1.192030e+03	3.002979e+04   2.878966e+05   -1.155269e+04   -3.476770e+03
9.597049e+00   2.721168e+02   -1.187083e+03	2.996084e+04   2.884212e+05   -1.173720e+04   -3.401733e+03
9.636601e+00   2.664089e+02   -1.190011e+03	2.993737e+04   2.893835e+05   -1.197224e+04   -3.363759e+03
9.676153e+00   2.849740e+02   -1.196934e+03	2.991085e+04   2.903157e+05   -1.217085e+04   -3.558600e+03
9.715705e+00   3.033626e+02   -1.194635e+03	2.987941e+04   2.911927e+05   -1.229777e+04   -3.747190e+03
9.755258e+00   3.032825e+02   -1.193787e+03	2.984224e+04   2.920119e+05   -1.251156e+04   -3.770286e+03
9.794810e+00   2.901752e+02   -1.194380e+03	2.979050e+04   2.926876e+05   -1.270684e+04   -3.649228e+03
9.834362e+00   2.818839e+02   -1.191912e+03	2.975086e+04   2.934760e+05   -1.290129e+04   -3.597236e+03
9.873914e+00   2.769124e+02   -1.178670e+03	2.969508e+04   2.940959e+05   -1.313663e+04   -3.570491e+03
9.913466e+00   2.746045e+02   -1.184807e+03	2.965573e+04   2.948860e+05   -1.336108e+04   -3.563131e+03
9.953018e+00   2.751473e+02   -1.181988e+03	2.963471e+04   2.958483e+05   -1.353946e+04   -3.584291e+03
9.992570e+00   2.619554e+02   -1.179209e+03	2.960536e+04   2.967270e+05   -1.374206e+04   -3.475753e+03
1.003212e+01   2.573572e+02   -1.175687e+03	2.955460e+04   2.973879e+05   -1.389945e+04   -3.451517e+03
1.007167e+01   2.588992e+02   -1.171176e+03	2.948047e+04   2.978094e+05   -1.415014e+04   -3.482271e+03
1.011123e+01   2.794635e+02   -1.179607e+03	2.945018e+04   2.986742e+05   -1.435598e+04   -3.696208e+03
1.015078e+01   2.936909e+02   -1.173638e+03	2.941163e+04   2.994449e+05   -1.447172e+04   -3.854346e+03
1.019033e+01   2.929301e+02   -1.185816e+03	2.940368e+04   3.005363e+05   -1.470749e+04   -3.866284e+03
1.022988e+01   2.786660e+02   -1.177401e+03	2.936824e+04   3.013327e+05   -1.492458e+04   -3.749886e+03
1.026944e+01   2.900447e+02   -1.174948e+03	2.933076e+04   3.021086e+05   -1.506358e+04   -3.864766e+03
1.030899e+01   2.781637e+02   -1.167332e+03	2.928722e+04   3.028176e+05   -1.529195e+04   -3.768016e+03
1.034854e+01   2.905481e+02   -1.178427e+03	2.922075e+04   3.032954e+05   -1.546220e+04   -3.920325e+03
1.038809e+01   2.846658e+02   -1.169881e+03	2.917573e+04   3.039794e+05   -1.565382e+04   -3.876581e+03
1.042764e+01   2.633551e+02   -1.165183e+03	2.917486e+04   3.051228e+05   -1.584521e+04   -3.671842e+03
1.046720e+01   2.701069e+02   -1.164941e+03	2.915033e+04   3.060213e+05   -1.599654e+04   -3.758170e+03
1.050675e+01   2.639804e+02   -1.163787e+03	2.912238e+04   3.068805e+05   -1.625836e+04   -3.707803e+03
1.054630e+01   2.570902e+02   -1.162313e+03	2.906961e+04   3.074765e+05   -1.645027e+04   -3.656090e+03
1.058585e+01   2.693678e+02   -1.163218e+03	2.901117e+04   3.080102e+05   -1.660309e+04   -3.806058e+03
1.062540e+01   2.772365e+02   -1.164545e+03	2.898961e+04   3.089294e+05   -1.683396e+04   -3.898952e+03
1.066496e+01   2.876118e+02   -1.166407e+03	2.894855e+04   3.096402e+05   -1.702557e+04   -4.025062e+03
1.070451e+01   2.907490e+02   -1.165008e+03	2.887510e+04   3.099994e+05   -1.720770e+04   -4.078437e+03
1.074406e+01   2.819608e+02   -1.159332e+03	2.880361e+04   3.103718e+05   -1.737619e+04   -3.999574e+03
1.078361e+01   2.696929e+02   -1.152978e+03	2.878072e+04   3.112619e+05   -1.754998e+04   -3.886482e+03
1.082316e+01   2.747523e+02   -1.155267e+03	2.876678e+04   3.122512e+05   -1.776957e+04   -3.961681e+03
1.086272e+01   2.804142e+02   -1.156271e+03	2.871925e+04   3.128745e+05   -1.795625e+04   -4.033756e+03
1.090227e+01   2.537089e+02   -1.152623e+03	2.869114e+04   3.137037e+05   -1.814144e+04   -3.767012e+03
1.094182e+01   2.548070e+02   -1.149528e+03	2.862802e+04   3.141474e+05   -1.827163e+04   -3.791473e+03
1.098137e+01   2.576720e+02   -1.152377e+03	2.860266e+04   3.150038e+05   -1.850114e+04   -3.845946e+03
1.102093e+01   2.657791e+02   -1.144949e+03	2.856540e+04   3.157211e+05   -1.871912e+04   -3.944623e+03
1.106048e+01   2.836927e+02   -1.154077e+03	2.852143e+04   3.163712e+05   -1.890160e+04   -4.164757e+03
1.110003e+01   2.887494e+02   -1.150819e+03	2.848613e+04   3.171071e+05   -1.910167e+04   -4.232720e+03
1.113958e+01   2.799032e+02   -1.145549e+03	2.847091e+04   3.180619e+05   -1.925543e+04   -4.155006e+03
1.117913e+01   2.662461e+02   -1.145429e+03	2.843402e+04   3.187765e+05   -1.945961e+04   -4.023496e+03
1.121869e+01   2.654631e+02   -1.142363e+03	2.838725e+04   3.193756e+05   -1.963018e+04   -4.017152e+03
1.125824e+01   2.595660e+02   -1.143417e+03	2.833276e+04   3.198875e+05   -1.982718e+04   -3.971498e+03
1.129779e+01   2.641980e+02   -1.145891e+03	2.828684e+04   3.204924e+05   -2.004897e+04   -4.056150e+03
1.133734e+01   2.715099e+02   -1.137483e+03	2.824282e+04   3.211078e+05   -2.017953e+04   -4.140000e+03
1.137689e+01   2.558175e+02   -1.136013e+03	2.820943e+04   3.218457e+05   -2.041880e+04   -3.991926e+03
1.141645e+01   2.538191e+02   -1.130230e+03	2.814859e+04   3.222642e+05   -2.055402e+04   -3.978948e+03
1.145600e+01   2.566328e+02   -1.132575e+03	2.807571e+04   3.225452e+05   -2.070765e+04   -4.028793e+03
1.149555e+01   2.822105e+02   -1.138220e+03	2.803285e+04   3.231677e+05   -2.090529e+04   -4.327017e+03
1.153510e+01   2.818305e+02   -1.136716e+03	2.802191e+04   3.241503e+05   -2.112268e+04   -4.345278e+03
1.157466e+01   2.789674e+02   -1.134205e+03	2.795005e+04   3.244264e+05   -2.125104e+04   -4.323444e+03
1.161421e+01   2.679437e+02   -1.129496e+03	2.789794e+04   3.249258e+05   -2.142002e+04   -4.223725e+03
1.165376e+01   2.714849e+02   -1.127583e+03	2.784427e+04   3.254030e+05   -2.156888e+04   -4.275538e+03
1.169331e+01   2.733666e+02   -1.128897e+03	2.783034e+04   3.263437e+05   -2.176141e+04   -4.311123e+03
1.173286e+01   2.836821e+02   -1.126311e+03	2.778692e+04   3.269344e+05   -2.194405e+04   -4.448777e+03
1.177242e+01   2.865788e+02   -1.130149e+03	2.778305e+04   3.279914e+05   -2.213898e+04   -4.500658e+03
1.181197e+01   2.686603e+02   -1.123082e+03	2.774603e+04   3.286501e+05   -2.233123e+04   -4.314852e+03
1.185152e+01   2.773654e+02   -1.128677e+03	2.769573e+04   3.291558e+05   -2.251121e+04   -4.434223e+03
1.189107e+01   2.814817e+02   -1.122572e+03	2.765620e+04   3.297788e+05   -2.273586e+04   -4.497138e+03
1.193062e+01   2.771880e+02   -1.115325e+03	2.755013e+04   3.296048e+05   -2.288374e+04   -4.460546e+03
1.197018e+01   2.816074e+02   -1.118709e+03	2.751957e+04   3.303316e+05   -2.304161e+04   -4.528524e+03
1.200973e+01   2.841314e+02   -1.118561e+03	2.748077e+04   3.309545e+05   -2.317008e+04   -4.575089e+03
1.204928e+01   2.781827e+02   -1.118417e+03	2.744897e+04   3.316605e+05   -2.338972e+04   -4.529230e+03
1.208883e+01   2.749329e+02   -1.111688e+03	2.739021e+04   3.320318e+05   -2.353871e+04   -4.494741e+03
1.212839e+01   2.778240e+02   -1.109468e+03	2.733150e+04   3.324031e+05   -2.369459e+04   -4.548598e+03
1.216794e+01   2.772448e+02   -1.106434e+03	2.728849e+04   3.329604e+05   -2.383782e+04   -4.567660e+03
1.220749e+01   2.744554e+02   -1.110542e+03	2.723785e+04   3.334260e+05   -2.403705e+04   -4.552885e+03
1.224704e+01   2.776696e+02   -1.106981e+03	2.722061e+04   3.342901e+05   -2.419789e+04   -4.594987e+03
1.228659e+01   2.775418e+02   -1.108835e+03	2.720032e+04   3.351200e+05   -2.440718e+04   -4.615050e+03
1.232615e+01   2.768482e+02   -1.104928e+03	2.714440e+04   3.355052e+05   -2.458681e+04   -4.623394e+03
1.236570e+01   2.757542e+02   -1.106237e+03	2.708951e+04   3.359027e+05   -2.474370e+04   -4.628825e+03
1.240525e+01   2.633535e+02   -1.101053e+03	2.706300e+04   3.366426e+05   -2.488230e+04   -4.489873e+03
1.244480e+01   2.739494e+02   -1.097794e+03	2.702527e+04   3.372421e+05   -2.502409e+04   -4.630027e+03
1.248435e+01   2.760313e+02   -1.100234e+03	2.696167e+04   3.375206e+05   -2.516925e+04   -4.677894e+03
1.252391e+01   2.767175e+02   -1.105892e+03	2.691339e+04   3.379877e+05   -2.534657e+04   -4.714659e+03
1.256346e+01   2.834909e+02   -1.098514e+03	2.687931e+04   3.386193e+05   -2.547829e+04   -4.804033e+03
1.260301e+01   2.720201e+02   -1.092037e+03	2.683838e+04   3.391641e+05   -2.564555e+04   -4.681920e+03
1.264256e+01   2.587121e+02   -1.088933e+03	2.681272e+04   3.399000e+05   -2.584593e+04   -4.536276e+03
1.268211e+01   2.697588e+02   -1.090594e+03	2.671661e+04   3.397447e+05   -2.599177e+04   -4.682543e+03
1.272167e+01   2.869202e+02   -1.088652e+03	2.665326e+04   3.399950e+05   -2.612994e+04   -4.907256e+03
1.276122e+01   2.748410e+02   -1.090271e+03	2.659195e+04   3.402701e+05   -2.630828e+04   -4.781311e+03
1.280077e+01   2.789494e+02   -1.081300e+03	2.654764e+04   3.407483e+05   -2.642273e+04   -4.838623e+03
1.284032e+01   2.727969e+02   -1.085088e+03	2.651255e+04   3.413528e+05   -2.659077e+04   -4.783184e+03
1.287988e+01   2.628357e+02   -1.080388e+03	2.646210e+04   3.417501e+05   -2.674690e+04   -4.672838e+03
1.291943e+01   2.749449e+02   -1.076946e+03	2.641540e+04   3.421910e+05   -2.687911e+04   -4.842130e+03
1.295898e+01   2.762129e+02   -1.078779e+03	2.639206e+04   3.429363e+05   -2.708460e+04   -4.872407e+03
1.299853e+01   2.731096e+02   -1.077218e+03	2.634814e+04   3.434097e+05   -2.723649e+04   -4.852376e+03
1.303808e+01   2.691033e+02   -1.071661e+03	2.631521e+04   3.440195e+05   -2.740893e+04   -4.814053e+03
1.307764e+01   2.729976e+02   -1.074987e+03	2.629605e+04   3.448137e+05   -2.757434e+04   -4.882203e+03
1.311719e+01   2.811089e+02   -1.076169e+03	2.624448e+04   3.451789e+05   -2.768670e+04   -5.004682e+03
1.315674e+01   2.898474e+02   -1.074436e+03	2.617286e+04   3.452746e+05   -2.780853e+04   -5.140351e+03
1.319629e+01   2.990956e+02   -1.074671e+03	2.613809e+04   3.458523e+05   -2.795911e+04   -5.274586e+03
1.323584e+01   2.816058e+02   -1.072110e+03	2.607741e+04   3.460825e+05   -2.810492e+04   -5.058355e+03