TITLE = "Grid: prim/mr_v4.2_no_tail_wing_v2_wing_set_0.17_targ_coarse_lvl_2.grid, Pointdata: sol/sol.pval.unsteady_i=100_t=2.000000e-02" 
VARIABLES = "Y", fx, fy, fz, mx, my, mz
#
# Force distributions of the components 
#
ZONE T="DISTR      Wing", F=POINT 
1.923936e+00   0.000000e+00   0.000000e+00	0.000000e+00   0.000000e+00   0.000000e+00   0.000000e+00
1.963488e+00   2.847406e+03   -3.117736e+02	3.412642e+04   6.774327e+04   9.788961e+03   -6.675171e+03
2.003041e+00   2.787902e+03   -2.871082e+02	3.422650e+04   6.929573e+04   9.506115e+03   -6.741798e+03
2.042593e+00   2.675099e+03   -2.746595e+02	3.429592e+04   7.079153e+04   9.368141e+03   -6.713319e+03
2.082145e+00   2.565561e+03   -2.648697e+02	3.443376e+04   7.243428e+04   9.268250e+03   -6.666949e+03
2.121697e+00   2.466135e+03   -2.657449e+02	3.451256e+04   7.396480e+04   9.154485e+03   -6.615209e+03
2.161249e+00   2.407968e+03   -2.643914e+02	3.459802e+04   7.551714e+04   9.016069e+03   -6.631792e+03
2.200801e+00   2.370145e+03   -2.688596e+02	3.462529e+04   7.694643e+04   8.755620e+03   -6.662857e+03
2.240353e+00   2.269431e+03   -2.748395e+02	3.465291e+04   7.837889e+04   8.590933e+03   -6.580217e+03
2.279905e+00   2.207644e+03   -2.672701e+02	3.466207e+04   7.977032e+04   8.468380e+03   -6.562684e+03
2.319458e+00   2.129698e+03   -2.623534e+02	3.468900e+04   8.120392e+04   8.355487e+03   -6.535797e+03
2.359010e+00   2.115158e+03   -2.717806e+02	3.468229e+04   8.256151e+04   8.162200e+03   -6.579509e+03
2.398562e+00   2.083566e+03   -2.803182e+02	3.472783e+04   8.404176e+04   8.026549e+03   -6.588700e+03
2.438114e+00   2.102274e+03   -2.859732e+02	3.470525e+04   8.536025e+04   7.888519e+03   -6.714393e+03
2.477666e+00   2.035719e+03   -2.844853e+02	3.465600e+04   8.661194e+04   7.753174e+03   -6.667902e+03
2.517218e+00   2.007121e+03   -2.996772e+02	3.463895e+04   8.794025e+04   7.647501e+03   -6.646752e+03
2.556770e+00   1.917210e+03   -2.923845e+02	3.464250e+04   8.931800e+04   7.652801e+03   -6.539730e+03
2.596322e+00   1.861426e+03   -3.018615e+02	3.464177e+04   9.068508e+04   7.571817e+03   -6.492133e+03
2.635875e+00   1.824812e+03   -3.012156e+02	3.460769e+04   9.196535e+04   7.494630e+03   -6.476675e+03
2.675427e+00   1.818960e+03   -3.239184e+02	3.458165e+04   9.326501e+04   7.392437e+03   -6.506460e+03
2.714979e+00   1.780059e+03   -3.318524e+02	3.454469e+04   9.453276e+04   7.308158e+03   -6.454004e+03
2.754531e+00   1.755719e+03   -3.381436e+02	3.449368e+04   9.575847e+04   7.146598e+03   -6.464806e+03
2.794083e+00   1.732046e+03   -3.409415e+02	3.445048e+04   9.699947e+04   7.057988e+03   -6.477869e+03
2.833635e+00   1.736559e+03   -3.532017e+02	3.443854e+04   9.832834e+04   7.064275e+03   -6.523896e+03
2.873187e+00   1.693003e+03   -3.670042e+02	3.438074e+04   9.952561e+04   6.898921e+03   -6.458678e+03
2.912739e+00   1.662414e+03   -3.709818e+02	3.431942e+04   1.007055e+05   6.899244e+03   -6.425058e+03
2.952292e+00   1.624100e+03   -3.782947e+02	3.427202e+04   1.019223e+05   6.845667e+03   -6.386083e+03
2.991844e+00   1.566960e+03   -3.795099e+02	3.423194e+04   1.031572e+05   6.719890e+03   -6.293058e+03
3.031396e+00   1.564875e+03   -3.878090e+02	3.412632e+04   1.041906e+05   6.537598e+03   -6.329077e+03
3.070948e+00   1.536339e+03   -3.990985e+02	3.409073e+04   1.054308e+05   6.539007e+03   -6.293598e+03
3.110500e+00   1.525414e+03   -4.090891e+02	3.408540e+04   1.067621e+05   6.509411e+03   -6.309250e+03
3.150052e+00   1.476170e+03   -4.222571e+02	3.403602e+04   1.079542e+05   6.474817e+03   -6.184138e+03
3.189604e+00   1.463657e+03   -4.359476e+02	3.396859e+04   1.090877e+05   6.386777e+03   -6.182922e+03
3.229156e+00   1.464360e+03   -4.437341e+02	3.392502e+04   1.102887e+05   6.303186e+03   -6.240797e+03
3.268709e+00   1.454734e+03   -4.558848e+02	3.387786e+04   1.114758e+05   6.219843e+03   -6.247215e+03
3.308261e+00   1.406020e+03   -4.592956e+02	3.386419e+04   1.127703e+05   6.226920e+03   -6.139070e+03
3.347813e+00   1.381259e+03   -4.653276e+02	3.377695e+04   1.138172e+05   6.080217e+03   -6.105965e+03
3.387365e+00   1.362300e+03   -4.880958e+02	3.372589e+04   1.149818e+05   6.040355e+03   -6.069948e+03
3.426917e+00   1.357645e+03   -4.897740e+02	3.372432e+04   1.163094e+05   5.990439e+03   -6.115011e+03
3.466469e+00   1.338399e+03   -5.014619e+02	3.366241e+04   1.174283e+05   5.970486e+03   -6.059534e+03
3.506021e+00   1.312596e+03   -5.121802e+02	3.359560e+04   1.185267e+05   5.940073e+03   -6.012059e+03
3.545574e+00   1.306371e+03   -5.202085e+02	3.355586e+04   1.197138e+05   5.851629e+03   -6.034902e+03
3.585126e+00   1.304374e+03   -5.392546e+02	3.351408e+04   1.208928e+05   5.814161e+03   -6.044854e+03
3.624678e+00   1.275501e+03   -5.500754e+02	3.344040e+04   1.219514e+05   5.730889e+03   -5.970301e+03
3.664230e+00   1.252728e+03   -5.553461e+02	3.337545e+04   1.230352e+05   5.573598e+03   -5.929268e+03
3.703782e+00   1.234608e+03   -5.666047e+02	3.332848e+04   1.241829e+05   5.539259e+03   -5.913421e+03
3.743334e+00   1.224345e+03   -5.692110e+02	3.328414e+04   1.253336e+05   5.468704e+03   -5.909307e+03
3.782886e+00   1.171780e+03   -5.802568e+02	3.321622e+04   1.263941e+05   5.452288e+03   -5.751724e+03
3.822438e+00   1.172373e+03   -5.919785e+02	3.319604e+04   1.276308e+05   5.364378e+03   -5.781710e+03
3.861991e+00   1.148970e+03   -6.019964e+02	3.314230e+04   1.287363e+05   5.347024e+03   -5.716200e+03
3.901543e+00   1.137355e+03   -6.103279e+02	3.306888e+04   1.297623e+05   5.199967e+03   -5.713490e+03
3.941095e+00   1.153408e+03   -6.209198e+02	3.301455e+04   1.308569e+05   5.151708e+03   -5.804011e+03
3.980647e+00   1.131621e+03   -6.266050e+02	3.295078e+04   1.319085e+05   5.062043e+03   -5.744933e+03
4.020199e+00   1.153962e+03   -6.405802e+02	3.290960e+04   1.330469e+05   4.962578e+03   -5.860937e+03
4.059751e+00   1.121451e+03   -6.523946e+02	3.286636e+04   1.341756e+05   4.861806e+03   -5.757191e+03
4.099303e+00   1.115240e+03   -6.655319e+02	3.280878e+04   1.352403e+05   4.733361e+03   -5.755185e+03
4.138855e+00   1.100384e+03   -6.688116e+02	3.276260e+04   1.363475e+05   4.706645e+03   -5.733449e+03
4.178408e+00   1.101330e+03   -6.763396e+02	3.268930e+04   1.373361e+05   4.586236e+03   -5.776218e+03
4.217960e+00   1.079987e+03   -6.798333e+02	3.260964e+04   1.382929e+05   4.500214e+03   -5.709541e+03
4.257512e+00   1.072803e+03   -7.000635e+02	3.257343e+04   1.394318e+05   4.426541e+03   -5.695483e+03
4.297064e+00   1.048505e+03   -7.062138e+02	3.251413e+04   1.404671e+05   4.308847e+03   -5.638127e+03
4.336616e+00   1.014897e+03   -7.133077e+02	3.247558e+04   1.415846e+05   4.232344e+03   -5.531669e+03
4.376168e+00   1.012067e+03   -7.223597e+02	3.241726e+04   1.426154e+05   4.134020e+03   -5.545341e+03
4.415720e+00   9.901797e+02   -7.320493e+02	3.232969e+04   1.435123e+05   4.079075e+03   -5.467734e+03
4.455272e+00   9.769856e+02   -7.434819e+02	3.225475e+04   1.444581e+05   4.050544e+03   -5.432669e+03
4.494825e+00   9.866820e+02   -7.495245e+02	3.221757e+04   1.455667e+05   4.004062e+03   -5.490293e+03
4.534377e+00   9.499988e+02   -7.581870e+02	3.218831e+04   1.467100e+05   3.938720e+03   -5.368749e+03
4.573929e+00   9.417742e+02   -7.605202e+02	3.213681e+04   1.477469e+05   3.816155e+03   -5.351800e+03
4.613481e+00   9.347990e+02   -7.705348e+02	3.211960e+04   1.489392e+05   3.826132e+03   -5.359405e+03
4.653033e+00   9.374690e+02   -7.813465e+02	3.203424e+04   1.498149e+05   3.761558e+03   -5.383200e+03
4.692585e+00   9.128239e+02   -7.772297e+02	3.194323e+04   1.506537e+05   3.580858e+03   -5.326877e+03
4.732137e+00   9.431603e+02   -7.893709e+02	3.189834e+04   1.517061e+05   3.543814e+03   -5.461627e+03
4.771689e+00   9.168483e+02   -7.992236e+02	3.181442e+04   1.525693e+05   3.392379e+03   -5.372799e+03
4.811242e+00   8.959327e+02   -8.063943e+02	3.176764e+04   1.536030e+05   3.250204e+03   -5.306208e+03
4.850794e+00   9.147889e+02   -8.191829e+02	3.170470e+04   1.545564e+05   3.158049e+03   -5.413545e+03
4.890346e+00   8.909662e+02   -8.197393e+02	3.165030e+04   1.555446e+05   3.108993e+03   -5.322211e+03
4.929898e+00   8.949113e+02   -8.350279e+02	3.161710e+04   1.566354e+05   3.108409e+03   -5.348369e+03
4.969450e+00   8.864827e+02   -8.356383e+02	3.153881e+04   1.574957e+05   3.019746e+03   -5.336116e+03
5.009002e+00   8.737754e+02   -8.412103e+02	3.148749e+04   1.584885e+05   2.826182e+03   -5.311545e+03
5.048554e+00   8.573778e+02   -8.434421e+02	3.144088e+04   1.594974e+05   2.690561e+03   -5.267647e+03
5.088106e+00   8.622447e+02   -8.468169e+02	3.140307e+04   1.605490e+05   2.636231e+03   -5.320946e+03
5.127659e+00   8.513215e+02   -8.531779e+02	3.133482e+04   1.614425e+05   2.579738e+03   -5.285926e+03
5.167211e+00   8.493051e+02   -8.675875e+02	3.128718e+04   1.624381e+05   2.487989e+03   -5.291666e+03
5.206763e+00   8.369919e+02   -8.698371e+02	3.124083e+04   1.634345e+05   2.447596e+03   -5.239538e+03
5.246315e+00   8.249488e+02   -8.779245e+02	3.117943e+04   1.643498e+05   2.295878e+03   -5.217028e+03
5.285867e+00   8.156386e+02   -8.814593e+02	3.111923e+04   1.652652e+05   2.185653e+03   -5.195861e+03
5.325419e+00   8.141847e+02   -8.839433e+02	3.104573e+04   1.661041e+05   2.151372e+03   -5.206900e+03
5.364971e+00   8.250431e+02   -8.833787e+02	3.098993e+04   1.670319e+05   2.119570e+03   -5.288984e+03
5.404524e+00   8.029644e+02   -8.923857e+02	3.090965e+04   1.678266e+05   1.932686e+03   -5.198925e+03
5.444076e+00   8.046917e+02   -8.979427e+02	3.083492e+04   1.686433e+05   1.758240e+03   -5.227097e+03
5.483628e+00   8.278532e+02   -9.053119e+02	3.077806e+04   1.695523e+05   1.703281e+03   -5.361362e+03
5.523180e+00   8.206816e+02   -9.074110e+02	3.075082e+04   1.706188e+05   1.619334e+03   -5.363850e+03
5.562732e+00   8.040568e+02   -9.075568e+02	3.067823e+04   1.714305e+05   1.500296e+03   -5.309826e+03
5.602284e+00   7.875442e+02   -9.109504e+02	3.060885e+04   1.722560e+05   1.419817e+03   -5.237843e+03
5.641836e+00   7.819774e+02   -9.094467e+02	3.055315e+04   1.731518e+05   1.273144e+03   -5.236175e+03
5.681388e+00   7.762968e+02   -9.112622e+02	3.048636e+04   1.739812e+05   1.189312e+03   -5.240024e+03
5.720941e+00   7.647369e+02   -9.154159e+02	3.042063e+04   1.748125e+05   1.094224e+03   -5.200251e+03
5.760493e+00   7.695822e+02   -9.200867e+02	3.036874e+04   1.757167e+05   1.031565e+03   -5.240594e+03
5.800045e+00   7.547462e+02   -9.197438e+02	3.033456e+04   1.767189e+05   8.964387e+02   -5.186656e+03
5.839597e+00   7.596611e+02   -9.213864e+02	3.024450e+04   1.773924e+05   7.985392e+02   -5.230377e+03
5.879149e+00   7.608615e+02   -9.224141e+02	3.018299e+04   1.782275e+05   7.525599e+02   -5.270767e+03
5.918701e+00   7.862093e+02   -9.306618e+02	3.014317e+04   1.791866e+05   6.930796e+02   -5.433202e+03
5.958253e+00   7.553343e+02   -9.187505e+02	3.010884e+04   1.801710e+05   6.556709e+02   -5.294837e+03
5.997805e+00   7.435972e+02   -9.225087e+02	3.004787e+04   1.809966e+05   5.015054e+02   -5.256016e+03
6.037358e+00   7.465992e+02   -9.294665e+02	2.999173e+04   1.818479e+05   3.671624e+02   -5.290152e+03
6.076910e+00   7.620095e+02   -9.246396e+02	2.990372e+04   1.824973e+05   1.749184e+02   -5.411097e+03
6.116462e+00   7.720234e+02   -9.223919e+02	2.983827e+04   1.832789e+05   5.944601e+01   -5.502460e+03
6.156014e+00   7.469095e+02   -9.217835e+02	2.977215e+04   1.840515e+05   -9.314683e+01   -5.398475e+03
6.195566e+00   7.495316e+02   -9.219813e+02	2.973629e+04   1.850064e+05   -2.068581e+02   -5.426141e+03
6.235118e+00   7.643310e+02   -9.201655e+02	2.967362e+04   1.857901e+05   -2.687224e+02   -5.550134e+03
6.274670e+00   7.750538e+02   -9.652415e+02	2.961780e+04   1.866237e+05   -3.663630e+02   -5.579451e+03
6.314222e+00   7.562231e+02   -1.141295e+03	2.959350e+04   1.876927e+05   -4.807865e+02   -5.322096e+03
6.353775e+00   7.440217e+02   -1.182152e+03	2.952594e+04   1.884450e+05   -5.977937e+02   -5.216007e+03
6.393327e+00   7.232972e+02   -1.180859e+03	2.946620e+04   1.892324e+05   -7.966265e+02   -5.125338e+03
6.432879e+00   7.155493e+02   -1.180153e+03	2.944451e+04   1.902569e+05   -9.147017e+02   -5.101576e+03
6.472431e+00   7.143184e+02   -1.179530e+03	2.941241e+04   1.912144e+05   -1.066826e+03   -5.122286e+03
6.511983e+00   6.945397e+02   -1.177807e+03	2.941169e+04   1.923736e+05   -1.256513e+03   -5.024892e+03
6.551535e+00   6.853755e+02   -1.168411e+03	2.937614e+04   1.933004e+05   -1.405730e+03   -4.996354e+03
6.591087e+00   6.745636e+02   -1.175537e+03	2.932275e+04   1.941147e+05   -1.641204e+03   -4.953111e+03
6.630639e+00   6.675744e+02   -1.166964e+03	2.930563e+04   1.951579e+05   -1.761717e+03   -4.937334e+03
6.670192e+00   6.567786e+02   -1.164835e+03	2.929139e+04   1.962220e+05   -1.881661e+03   -4.907420e+03
6.709744e+00   6.491221e+02   -1.166364e+03	2.923380e+04   1.969952e+05   -1.998159e+03   -4.875305e+03
6.749296e+00   6.248384e+02   -1.158602e+03	2.920964e+04   1.979866e+05   -2.251126e+03   -4.753486e+03
6.788848e+00   6.194707e+02   -1.156528e+03	2.919450e+04   1.990393e+05   -2.422741e+03   -4.757495e+03
6.828400e+00   6.344337e+02   -1.160267e+03	2.914604e+04   1.998646e+05   -2.537067e+03   -4.867660e+03
6.867952e+00   6.006553e+02   -1.149474e+03	2.912379e+04   2.008614e+05   -2.732426e+03   -4.677631e+03
6.907504e+00   6.048528e+02   -1.148705e+03	2.910051e+04   2.018522e+05   -2.843330e+03   -4.732101e+03
6.947056e+00   5.953016e+02   -1.150798e+03	2.906444e+04   2.027544e+05   -3.036054e+03   -4.694638e+03
6.986609e+00   5.895919e+02   -1.149833e+03	2.904746e+04   2.037852e+05   -3.098636e+03   -4.671347e+03
7.026161e+00   5.916246e+02   -1.150037e+03	2.902293e+04   2.047626e+05   -3.208307e+03   -4.713827e+03
7.065713e+00   5.780073e+02   -1.143893e+03	2.900379e+04   2.057735e+05   -3.396131e+03   -4.650182e+03
7.105265e+00   5.707122e+02   -1.143401e+03	2.895011e+04   2.065396e+05   -3.593323e+03   -4.618769e+03
7.144817e+00   5.660363e+02   -1.143969e+03	2.891351e+04   2.074249e+05   -3.744737e+03   -4.614846e+03
7.184369e+00   5.464930e+02   -1.140119e+03	2.893807e+04   2.087429e+05   -3.911271e+03   -4.508382e+03
7.223921e+00   5.531569e+02   -1.143261e+03	2.888984e+04   2.095418e+05   -4.101502e+03   -4.580350e+03
7.263474e+00   5.451901e+02   -1.140479e+03	2.886777e+04   2.105226e+05   -4.206921e+03   -4.544419e+03
7.303026e+00   5.382361e+02   -1.133944e+03	2.881630e+04   2.112864e+05   -4.402338e+03   -4.522387e+03
7.342578e+00   5.358256e+02   -1.132532e+03	2.878137e+04   2.121702e+05   -4.578269e+03   -4.533045e+03
7.382130e+00   5.284496e+02   -1.130492e+03	2.875462e+04   2.131112e+05   -4.756615e+03   -4.500035e+03
7.421682e+00   5.161570e+02   -1.132177e+03	2.872375e+04   2.140212e+05   -4.933019e+03   -4.438072e+03
7.461234e+00   5.160056e+02   -1.132694e+03	2.870236e+04   2.149983e+05   -5.093538e+03   -4.455225e+03
7.500786e+00   5.204470e+02   -1.125925e+03	2.867328e+04   2.159119e+05   -5.279495e+03   -4.520416e+03
7.540338e+00   4.999341e+02   -1.126630e+03	2.865059e+04   2.168776e+05   -5.492372e+03   -4.397253e+03
7.579891e+00   5.068646e+02   -1.126865e+03	2.861562e+04   2.177461e+05   -5.596815e+03   -4.469033e+03
7.619443e+00   4.978827e+02   -1.125487e+03	2.858836e+04   2.186696e+05   -5.742604e+03   -4.436592e+03
7.658995e+00   4.776643e+02   -1.116129e+03	2.856987e+04   2.196557e+05   -5.886136e+03   -4.295547e+03
7.698547e+00   4.794384e+02   -1.118778e+03	2.852161e+04   2.204161e+05   -6.076786e+03   -4.335978e+03
7.738099e+00   4.676153e+02   -1.114857e+03	2.849300e+04   2.213227e+05   -6.199569e+03   -4.269447e+03
7.777651e+00   4.732528e+02   -1.115920e+03	2.846103e+04   2.222011e+05   -6.337289e+03   -4.331383e+03
7.817203e+00   4.860760e+02   -1.120392e+03	2.838512e+04   2.227358e+05   -6.555820e+03   -4.448794e+03
7.856755e+00   4.823163e+02   -1.112605e+03	2.838257e+04   2.238361e+05   -6.730019e+03   -4.445271e+03
7.896308e+00   4.643070e+02   -1.116174e+03	2.837449e+04   2.248972e+05   -6.879285e+03   -4.330517e+03
7.935860e+00   4.657835e+02   -1.109696e+03	2.833736e+04   2.257225e+05   -7.111081e+03   -4.367042e+03
7.975412e+00   4.529306e+02   -1.109945e+03	2.830197e+04   2.265617e+05   -7.269864e+03   -4.284127e+03
8.014964e+00   4.399343e+02   -1.104087e+03	2.829337e+04   2.276114e+05   -7.437099e+03   -4.206332e+03
8.054516e+00   4.608328e+02   -1.112231e+03	2.827344e+04   2.285732e+05   -7.634515e+03   -4.393597e+03
8.094068e+00   4.659277e+02   -1.109110e+03	2.826330e+04   2.296073e+05   -7.821431e+03   -4.458395e+03
8.133620e+00   4.618105e+02   -1.105607e+03	2.821026e+04   2.302938e+05   -7.994499e+03   -4.449343e+03
8.173172e+00   4.467062e+02   -1.111628e+03	2.816924e+04   2.310781e+05   -8.101016e+03   -4.348590e+03
8.212725e+00   4.137242e+02   -1.098314e+03	2.813606e+04   2.319147e+05   -8.240418e+03   -4.114891e+03
8.252277e+00   4.140868e+02   -1.091753e+03	2.809769e+04   2.327076e+05   -8.382558e+03   -4.123339e+03
8.291829e+00   4.242481e+02   -1.101625e+03	2.807596e+04   2.336444e+05   -8.533707e+03   -4.229455e+03
8.331381e+00   4.258661e+02   -1.098941e+03	2.804842e+04   2.345255e+05   -8.684414e+03   -4.270882e+03
8.370933e+00   4.164272e+02   -1.090509e+03	2.802382e+04   2.354250e+05   -8.897866e+03   -4.208886e+03
8.410485e+00   4.236366e+02   -1.094483e+03	2.798440e+04   2.362043e+05   -9.030669e+03   -4.288455e+03
8.450037e+00   4.169276e+02   -1.095120e+03	2.793977e+04   2.369355e+05   -9.114177e+03   -4.256496e+03
8.489589e+00   4.284147e+02   -1.097222e+03	2.789005e+04   2.376194e+05   -9.291679e+03   -4.362573e+03
8.529142e+00   4.166651e+02   -1.092031e+03	2.787974e+04   2.386326e+05   -9.461003e+03   -4.283465e+03
8.568694e+00   4.091720e+02   -1.090275e+03	2.786258e+04   2.395889e+05   -9.639241e+03   -4.243257e+03
8.608246e+00   4.006299e+02   -1.086711e+03	2.783334e+04   2.404390e+05   -9.836367e+03   -4.207859e+03
8.647798e+00   4.013063e+02   -1.085958e+03	2.780954e+04   2.413327e+05   -9.988274e+03   -4.221111e+03
8.687350e+00   3.938477e+02   -1.085958e+03	2.777000e+04   2.420907e+05   -1.016035e+04   -4.173026e+03
8.726902e+00   3.842909e+02   -1.082764e+03	2.773810e+04   2.429102e+05   -1.032196e+04   -4.113365e+03
8.766454e+00   3.888523e+02   -1.079978e+03	2.768998e+04   2.435839e+05   -1.047045e+04   -4.179066e+03
8.806006e+00   3.826700e+02   -1.078352e+03	2.768522e+04   2.446374e+05   -1.062610e+04   -4.148660e+03
8.845559e+00   3.673118e+02   -1.075032e+03	2.764295e+04   2.453580e+05   -1.075105e+04   -4.029714e+03
8.885111e+00   3.697614e+02   -1.072462e+03	2.758129e+04   2.459026e+05   -1.090201e+04   -4.066244e+03
8.924663e+00   3.713266e+02   -1.076653e+03	2.757131e+04   2.469074e+05   -1.105261e+04   -4.095747e+03
8.964215e+00   3.633103e+02   -1.077382e+03	2.752950e+04   2.476232e+05   -1.125465e+04   -4.045906e+03
9.003767e+00   3.649551e+02   -1.071782e+03	2.748689e+04   2.483273e+05   -1.141247e+04   -4.083864e+03
9.043319e+00   3.759221e+02   -1.071024e+03	2.743482e+04   2.489436e+05   -1.157948e+04   -4.193935e+03
9.082871e+00   3.699338e+02   -1.071401e+03	2.739663e+04   2.496820e+05   -1.170895e+04   -4.164563e+03
9.122424e+00   3.593734e+02   -1.067668e+03	2.738082e+04   2.506216e+05   -1.184145e+04   -4.088492e+03
9.161976e+00   3.453665e+02   -1.062446e+03	2.733317e+04   2.512657e+05   -1.200526e+04   -3.973783e+03
9.201528e+00   3.547836e+02   -1.068776e+03	2.729778e+04   2.520246e+05   -1.218476e+04   -4.070965e+03
9.241080e+00   3.573398e+02   -1.067774e+03	2.727272e+04   2.528726e+05   -1.232577e+04   -4.125657e+03
9.280632e+00   3.676972e+02   -1.066053e+03	2.722343e+04   2.534938e+05   -1.245408e+04   -4.231061e+03
9.320184e+00   3.636486e+02   -1.061005e+03	2.717977e+04   2.541619e+05   -1.267283e+04   -4.219851e+03
9.359736e+00   3.445390e+02   -1.058648e+03	2.715032e+04   2.549611e+05   -1.278918e+04   -4.058239e+03
9.399288e+00   3.526826e+02   -1.060746e+03	2.708457e+04   2.554185e+05   -1.290025e+04   -4.153664e+03
9.438841e+00   3.399789e+02   -1.052179e+03	2.707876e+04   2.564312e+05   -1.311554e+04   -4.043554e+03
9.478393e+00   3.387581e+02   -1.056856e+03	2.706557e+04   2.573802e+05   -1.328871e+04   -4.063333e+03
9.517945e+00   3.544952e+02   -1.057343e+03	2.700415e+04   2.578682e+05   -1.345622e+04   -4.229109e+03
9.557497e+00   3.330972e+02   -1.048891e+03	2.698692e+04   2.587667e+05   -1.361203e+04   -4.049831e+03
9.597049e+00   3.232507e+02   -1.044160e+03	2.692120e+04   2.592014e+05   -1.374847e+04   -3.965100e+03
9.636601e+00   3.166464e+02   -1.046440e+03	2.689536e+04   2.600200e+05   -1.393790e+04   -3.918931e+03
9.676153e+00   3.326195e+02   -1.052401e+03	2.687176e+04   2.608592e+05   -1.408714e+04   -4.089158e+03
9.715705e+00   3.497642e+02   -1.050216e+03	2.684179e+04   2.616301e+05   -1.417233e+04   -4.265834e+03
9.755258e+00   3.485432e+02   -1.049588e+03	2.680530e+04   2.623354e+05   -1.433922e+04   -4.277354e+03
9.794810e+00   3.339962e+02   -1.049478e+03	2.675683e+04   2.629221e+05   -1.449101e+04   -4.142560e+03
9.834362e+00   3.241902e+02   -1.046392e+03	2.672137e+04   2.636310e+05   -1.464118e+04   -4.075514e+03
9.873914e+00   3.178773e+02   -1.033268e+03	2.666328e+04   2.641078e+05   -1.482622e+04   -4.034879e+03
9.913466e+00   3.153933e+02   -1.039372e+03	2.662691e+04   2.648071e+05   -1.500486e+04   -4.025478e+03
9.953018e+00   3.148261e+02   -1.036429e+03	2.660556e+04   2.656460e+05   -1.514234e+04   -4.035312e+03
9.992570e+00   2.993169e+02   -1.032865e+03	2.656982e+04   2.663401e+05   -1.529623e+04   -3.903081e+03
1.003212e+01   2.928508e+02   -1.029442e+03	2.652728e+04   2.669631e+05   -1.541442e+04   -3.860118e+03
1.007167e+01   2.954270e+02   -1.025323e+03	2.645519e+04   2.672853e+05   -1.561776e+04   -3.900041e+03
1.011123e+01   3.143205e+02   -1.033873e+03	2.642839e+04   2.680652e+05   -1.577543e+04   -4.096326e+03
1.015078e+01   3.266849e+02   -1.027180e+03	2.639043e+04   2.687216e+05   -1.584666e+04   -4.235384e+03
1.019033e+01   3.233304e+02   -1.038735e+03	2.638241e+04   2.696920e+05   -1.603454e+04   -4.220428e+03
1.022988e+01   3.084927e+02   -1.030204e+03	2.634517e+04   2.703501e+05   -1.620380e+04   -4.097479e+03
1.026944e+01   3.177438e+02   -1.027248e+03	2.630962e+04   2.710255e+05   -1.629811e+04   -4.189541e+03
1.030899e+01   3.049203e+02   -1.019884e+03	2.627174e+04   2.716730e+05   -1.647976e+04   -4.082385e+03
1.034854e+01   3.170686e+02   -1.030811e+03	2.620090e+04   2.719857e+05   -1.660040e+04   -4.230168e+03
1.038809e+01   3.094047e+02   -1.022505e+03	2.616896e+04   2.726861e+05   -1.675675e+04   -4.168160e+03
1.042764e+01   2.853632e+02   -1.016459e+03	2.616206e+04   2.736465e+05   -1.690169e+04   -3.934443e+03
1.046720e+01   2.906597e+02   -1.016312e+03	2.613694e+04   2.744193e+05   -1.700754e+04   -4.004324e+03
1.050675e+01   2.845763e+02   -1.015761e+03	2.611023e+04   2.751722e+05   -1.722435e+04   -3.952625e+03
1.054630e+01   2.768735e+02   -1.013720e+03	2.605721e+04   2.756456e+05   -1.736902e+04   -3.890875e+03
1.058585e+01   2.867421e+02   -1.013698e+03	2.600139e+04   2.760869e+05   -1.747716e+04   -4.014464e+03
1.062540e+01   2.940759e+02   -1.015726e+03	2.598513e+04   2.769434e+05   -1.766650e+04   -4.100674e+03
1.066496e+01   3.028389e+02   -1.017423e+03	2.594258e+04   2.775188e+05   -1.781108e+04   -4.208152e+03
1.070451e+01   3.040925e+02   -1.015106e+03	2.586686e+04   2.777340e+05   -1.794344e+04   -4.239684e+03
1.074406e+01   2.936460e+02   -1.009059e+03	2.580439e+04   2.780836e+05   -1.807258e+04   -4.142056e+03
1.078361e+01   2.811019e+02   -1.002812e+03	2.578275e+04   2.788683e+05   -1.820384e+04   -4.024721e+03
1.082316e+01   2.842140e+02   -1.005455e+03	2.576726e+04   2.797220e+05   -1.837732e+04   -4.076854e+03
1.086272e+01   2.881505e+02   -1.005681e+03	2.571602e+04   2.801856e+05   -1.851424e+04   -4.128728e+03
1.090227e+01   2.606522e+02   -1.001681e+03	2.569052e+04   2.809236e+05   -1.865658e+04   -3.851576e+03
1.094182e+01   2.610445e+02   -9.983026e+02	2.562431e+04   2.812142e+05   -1.874285e+04   -3.866133e+03
1.098137e+01   2.623919e+02   -1.000604e+03	2.560026e+04   2.819656e+05   -1.893019e+04   -3.902523e+03
1.102093e+01   2.691781e+02   -9.933259e+02	2.555900e+04   2.825196e+05   -1.910087e+04   -3.984715e+03
1.106048e+01   2.855150e+02   -1.002070e+03	2.552053e+04   2.831111e+05   -1.924150e+04   -4.185559e+03
1.110003e+01   2.890810e+02   -9.988681e+02	2.548527e+04   2.837282e+05   -1.939398e+04   -4.235360e+03
1.113958e+01   2.790423e+02   -9.928839e+02	2.547012e+04   2.845643e+05   -1.950322e+04   -4.142023e+03
1.117913e+01   2.621585e+02   -9.919757e+02	2.543386e+04   2.851664e+05   -1.966048e+04   -3.972978e+03
1.121869e+01   2.609826e+02   -9.898797e+02	2.539241e+04   2.857066e+05   -1.979350e+04   -3.960844e+03
1.125824e+01   2.534713e+02   -9.898700e+02	2.533369e+04   2.860512e+05   -1.993760e+04   -3.893330e+03
1.129779e+01   2.565721e+02   -9.923558e+02	2.528903e+04   2.865514e+05   -2.011618e+04   -3.959050e+03
1.133734e+01   2.617616e+02   -9.835483e+02	2.525512e+04   2.871621e+05   -2.021196e+04   -4.017147e+03
1.137689e+01   2.465676e+02   -9.821354e+02	2.521738e+04   2.877320e+05   -2.040408e+04   -3.871775e+03
1.141645e+01   2.433594e+02   -9.762560e+02	2.515699e+04   2.880368e+05   -2.049597e+04   -3.842770e+03
1.145600e+01   2.451338e+02   -9.787512e+02	2.509259e+04   2.882962e+05   -2.061241e+04   -3.878480e+03
1.149555e+01   2.673485e+02   -9.839692e+02	2.505966e+04   2.889141e+05   -2.077482e+04   -4.136777e+03
1.153510e+01   2.655544e+02   -9.817953e+02	2.503527e+04   2.896231e+05   -2.093303e+04   -4.134970e+03
1.157466e+01   2.628635e+02   -9.798172e+02	2.497536e+04   2.899194e+05   -2.103411e+04   -4.113641e+03
1.161421e+01   2.508121e+02   -9.748739e+02	2.492645e+04   2.903377e+05   -2.116507e+04   -3.999172e+03
1.165376e+01   2.526266e+02   -9.724586e+02	2.486951e+04   2.906585e+05   -2.126703e+04   -4.028475e+03
1.169331e+01   2.528195e+02   -9.731686e+02	2.485064e+04   2.914230e+05   -2.141024e+04   -4.041088e+03
1.173286e+01   2.621053e+02   -9.707905e+02	2.481470e+04   2.919833e+05   -2.155673e+04   -4.164715e+03
1.177242e+01   2.632489e+02   -9.742291e+02	2.480996e+04   2.929118e+05   -2.170405e+04   -4.192589e+03
1.181197e+01   2.427221e+02   -9.662115e+02	2.477073e+04   2.934257e+05   -2.185007e+04   -3.973036e+03
1.185152e+01   2.496429e+02   -9.719260e+02	2.471973e+04   2.938051e+05   -2.198651e+04   -4.068591e+03
1.189107e+01   2.523545e+02   -9.652076e+02	2.468034e+04   2.943113e+05   -2.216802e+04   -4.111474e+03
1.193062e+01   2.463745e+02   -9.579020e+02	2.458142e+04   2.941043e+05   -2.227369e+04   -4.051871e+03
1.197018e+01   2.494579e+02   -9.610746e+02	2.455060e+04   2.947099e+05   -2.239269e+04   -4.100880e+03
1.200973e+01   2.517874e+02   -9.609693e+02	2.451211e+04   2.952187e+05   -2.248096e+04   -4.141956e+03
1.204928e+01   2.452480e+02   -9.597247e+02	2.447696e+04   2.957658e+05   -2.265583e+04   -4.084688e+03
1.208883e+01   2.389573e+02   -9.538284e+02	2.441746e+04   2.960108e+05   -2.276241e+04   -4.011904e+03
1.212839e+01   2.396827e+02   -9.504455e+02	2.436055e+04   2.962851e+05   -2.288066e+04   -4.035719e+03
1.216794e+01   2.373954e+02   -9.467642e+02	2.431807e+04   2.967305e+05   -2.298643e+04   -4.031150e+03
1.220749e+01   2.347062e+02   -9.508499e+02	2.426956e+04   2.971040e+05   -2.314654e+04   -4.013355e+03
1.224704e+01   2.361350e+02   -9.467777e+02	2.425121e+04   2.978364e+05   -2.326571e+04   -4.030672e+03
1.228659e+01   2.356433e+02   -9.493232e+02	2.423575e+04   2.986081e+05   -2.343996e+04   -4.042629e+03
1.232615e+01   2.321196e+02   -9.450819e+02	2.418418e+04   2.989290e+05   -2.357883e+04   -4.013003e+03
1.236570e+01   2.304135e+02   -9.461239e+02	2.413187e+04   2.992408e+05   -2.370100e+04   -4.007572e+03
1.240525e+01   2.168229e+02   -9.405124e+02	2.410862e+04   2.999034e+05   -2.380144e+04   -3.849875e+03
1.244480e+01   2.256768e+02   -9.374455e+02	2.406508e+04   3.003135e+05   -2.389943e+04   -3.965059e+03
1.248435e+01   2.265278e+02   -9.393310e+02	2.400307e+04   3.004939e+05   -2.400733e+04   -3.993945e+03
1.252391e+01   2.257281e+02   -9.440051e+02	2.395109e+04   3.007964e+05   -2.413824e+04   -4.007196e+03
1.256346e+01   2.320403e+02   -9.378037e+02	2.392939e+04   3.014668e+05   -2.423801e+04   -4.087715e+03
1.260301e+01   2.193731e+02   -9.307325e+02	2.387756e+04   3.017566e+05   -2.435801e+04   -3.946488e+03
1.264256e+01   2.051264e+02   -9.271329e+02	2.385395e+04   3.024006e+05   -2.451909e+04   -3.784768e+03
1.268211e+01   2.164739e+02   -9.289906e+02	2.376303e+04   3.021936e+05   -2.463164e+04   -3.930512e+03
1.272167e+01   2.314615e+02   -9.269921e+02	2.369337e+04   3.022463e+05   -2.472544e+04   -4.123911e+03
1.276122e+01   2.185314e+02   -9.280908e+02	2.363897e+04   3.024919e+05   -2.486932e+04   -3.983311e+03
1.280077e+01   2.210712e+02   -9.194502e+02	2.360418e+04   3.029748e+05   -2.495810e+04   -4.017761e+03
1.284032e+01   2.127169e+02   -9.219721e+02	2.356223e+04   3.033734e+05   -2.508163e+04   -3.929042e+03
1.287988e+01   2.017231e+02   -9.170098e+02	2.351235e+04   3.036608e+05   -2.520415e+04   -3.801307e+03
1.291943e+01   2.115457e+02   -9.132733e+02	2.346747e+04   3.040079e+05   -2.529768e+04   -3.937517e+03
1.295898e+01   2.117136e+02   -9.150639e+02	2.344420e+04   3.046371e+05   -2.546372e+04   -3.948978e+03
1.299853e+01   2.087314e+02   -9.134816e+02	2.339921e+04   3.049795e+05   -2.557652e+04   -3.925658e+03
1.303808e+01   2.034610e+02   -9.075513e+02	2.336188e+04   3.054145e+05   -2.570883e+04   -3.867118e+03
1.307764e+01   2.055046e+02   -9.101513e+02	2.333793e+04   3.060283e+05   -2.582393e+04   -3.905017e+03
1.311719e+01   2.133885e+02   -9.120309e+02	2.329940e+04   3.064475e+05   -2.592274e+04   -4.021916e+03
1.315674e+01   2.204119e+02   -9.094684e+02	2.322376e+04   3.063728e+05   -2.599530e+04   -4.129805e+03
1.319629e+01   2.270220e+02   -9.093944e+02	2.318903e+04   3.068337e+05   -2.611252e+04   -4.225583e+03
1.323584e+01   2.089026e+02   -9.067138e+02	2.312927e+04   3.069588e+05   -2.622786e+04   -3.996185e+03