TITLE = "Grid: prim/mr_v4.2_no_tail_wing_v2_wing_set_0.17_targ_coarse_lvl_2.grid, Pointdata: sol/sol.pval.unsteady_i=1_t=2.0000e-04" 
VARIABLES = "Y", fx, fy, fz, mx, my, mz
#
# Force distributions of the components 
#
ZONE T="DISTR      Wing", F=POINT 
1.923936e+00   0.000000e+00   0.000000e+00	0.000000e+00   0.000000e+00   0.000000e+00   0.000000e+00
1.963488e+00   2.838355e+03   -2.789164e+02	3.357928e+04   6.667303e+04   9.016584e+03   -6.707745e+03
2.003041e+00   2.779041e+03   -2.541533e+02	3.367750e+04   6.820007e+04   8.729139e+03   -6.774601e+03
2.042593e+00   2.666479e+03   -2.417994e+02	3.374643e+04   6.967304e+04   8.589934e+03   -6.745850e+03
2.082145e+00   2.557006e+03   -2.320367e+02	3.388359e+04   7.129255e+04   8.489848e+03   -6.699168e+03
2.121697e+00   2.457846e+03   -2.329830e+02	3.396213e+04   7.280063e+04   8.376938e+03   -6.647206e+03
2.161249e+00   2.399973e+03   -2.317010e+02	3.404785e+04   7.433166e+04   8.240531e+03   -6.663687e+03
2.200801e+00   2.362484e+03   -2.363081e+02	3.407547e+04   7.573986e+04   7.982539e+03   -6.694653e+03
2.240353e+00   2.262079e+03   -2.424833e+02	3.410390e+04   7.715224e+04   7.821177e+03   -6.611606e+03
2.279905e+00   2.200562e+03   -2.350770e+02	3.411414e+04   7.852430e+04   7.702825e+03   -6.593845e+03
2.319458e+00   2.122974e+03   -2.302522e+02	3.414237e+04   7.993910e+04   7.594866e+03   -6.567052e+03
2.359010e+00   2.108826e+03   -2.399402e+02	3.413706e+04   8.127825e+04   7.407176e+03   -6.610492e+03
2.398562e+00   2.077463e+03   -2.486435e+02	3.418377e+04   8.273963e+04   7.275890e+03   -6.619373e+03
2.438114e+00   2.096317e+03   -2.544369e+02	3.416283e+04   8.404050e+04   7.142902e+03   -6.744764e+03
2.477666e+00   2.030075e+03   -2.531243e+02	3.411534e+04   8.527497e+04   7.013593e+03   -6.698140e+03
2.517218e+00   2.001803e+03   -2.684898e+02	3.410001e+04   8.658608e+04   6.913515e+03   -6.676879e+03
2.556770e+00   1.912202e+03   -2.613601e+02	3.410549e+04   8.794731e+04   6.924531e+03   -6.570071e+03
2.596322e+00   1.856579e+03   -2.710361e+02	3.410687e+04   8.929852e+04   6.850182e+03   -6.521994e+03
2.635875e+00   1.820168e+03   -2.705302e+02	3.407465e+04   9.056244e+04   6.778839e+03   -6.506324e+03
2.675427e+00   1.814619e+03   -2.933933e+02	3.405040e+04   9.184566e+04   6.682213e+03   -6.536151e+03
2.714979e+00   1.775922e+03   -3.015426e+02	3.401572e+04   9.309848e+04   6.604551e+03   -6.483533e+03
2.754531e+00   1.751721e+03   -3.079771e+02	3.396699e+04   9.430943e+04   6.449571e+03   -6.494000e+03
2.794083e+00   1.728433e+03   -3.110259e+02	3.392582e+04   9.553517e+04   6.366942e+03   -6.507223e+03
2.833635e+00   1.733247e+03   -3.235415e+02	3.391598e+04   9.684911e+04   6.379483e+03   -6.553259e+03
2.873187e+00   1.689776e+03   -3.374053e+02	3.386054e+04   9.803241e+04   6.220895e+03   -6.487851e+03
2.912739e+00   1.659270e+03   -3.415591e+02	3.380175e+04   9.919895e+04   6.227786e+03   -6.453865e+03
2.952292e+00   1.621101e+03   -3.489958e+02	3.375656e+04   1.004017e+05   6.180422e+03   -6.414837e+03
2.991844e+00   1.563984e+03   -3.503745e+02	3.371892e+04   1.016233e+05   6.061007e+03   -6.321365e+03
3.031396e+00   1.562100e+03   -3.588615e+02	3.361565e+04   1.026435e+05   5.885143e+03   -6.357289e+03
3.070948e+00   1.533853e+03   -3.703492e+02	3.358238e+04   1.038706e+05   5.893017e+03   -6.321950e+03
3.110500e+00   1.523166e+03   -3.804852e+02	3.357925e+04   1.051885e+05   5.869165e+03   -6.337799e+03
3.150052e+00   1.474156e+03   -3.938675e+02	3.353212e+04   1.063676e+05   5.840573e+03   -6.212766e+03
3.189604e+00   1.461582e+03   -4.076503e+02	3.346723e+04   1.074891e+05   5.759038e+03   -6.211029e+03
3.229156e+00   1.462345e+03   -4.156216e+02	3.342621e+04   1.086784e+05   5.682394e+03   -6.268502e+03
3.268709e+00   1.452839e+03   -4.279383e+02	3.338162e+04   1.098541e+05   5.605866e+03   -6.274724e+03
3.308261e+00   1.404207e+03   -4.315179e+02	3.337034e+04   1.111367e+05   5.619231e+03   -6.166473e+03
3.347813e+00   1.379485e+03   -4.376970e+02	3.328543e+04   1.121719e+05   5.479041e+03   -6.132925e+03
3.387365e+00   1.360685e+03   -4.605995e+02	3.323694e+04   1.133256e+05   5.445632e+03   -6.096914e+03
3.426917e+00   1.356211e+03   -4.624057e+02	3.323775e+04   1.146420e+05   5.401609e+03   -6.142199e+03
3.466469e+00   1.337087e+03   -4.743476e+02	3.317811e+04   1.157494e+05   5.387027e+03   -6.086549e+03
3.506021e+00   1.311403e+03   -4.851859e+02	3.311400e+04   1.168380e+05   5.363355e+03   -6.039092e+03
3.545574e+00   1.305339e+03   -4.934047e+02	3.307683e+04   1.180151e+05   5.281467e+03   -6.061898e+03
3.585126e+00   1.303436e+03   -5.125830e+02	3.303746e+04   1.191836e+05   5.249960e+03   -6.071791e+03
3.624678e+00   1.274558e+03   -5.235414e+02	3.296623e+04   1.202322e+05   5.172868e+03   -5.996915e+03
3.664230e+00   1.251870e+03   -5.289717e+02	3.290362e+04   1.213057e+05   5.021678e+03   -5.955720e+03
3.703782e+00   1.233936e+03   -5.403327e+02	3.285906e+04   1.224437e+05   4.993109e+03   -5.940109e+03
3.743334e+00   1.223852e+03   -5.431354e+02	3.281687e+04   1.235838e+05   4.927773e+03   -5.936241e+03
3.782886e+00   1.171205e+03   -5.543327e+02	3.275119e+04   1.246341e+05   4.916978e+03   -5.777980e+03
3.822438e+00   1.172053e+03   -5.661961e+02	3.273342e+04   1.258615e+05   4.834837e+03   -5.808499e+03
3.861991e+00   1.148704e+03   -5.763724e+02	3.268203e+04   1.269577e+05   4.822985e+03   -5.742850e+03
3.901543e+00   1.137163e+03   -5.848456e+02	3.261115e+04   1.279753e+05   4.682305e+03   -5.739995e+03
3.941095e+00   1.153447e+03   -5.955842e+02	3.255906e+04   1.290607e+05   4.639014e+03   -5.831014e+03
3.980647e+00   1.131642e+03   -6.013946e+02	3.249764e+04   1.301035e+05   4.555026e+03   -5.771706e+03
4.020199e+00   1.154018e+03   -6.155536e+02	3.245891e+04   1.312338e+05   4.461122e+03   -5.887375e+03
4.059751e+00   1.121625e+03   -6.274235e+02	3.241789e+04   1.323536e+05   4.365847e+03   -5.783968e+03
4.099303e+00   1.115509e+03   -6.407656e+02	3.236244e+04   1.334092e+05   4.242688e+03   -5.781838e+03
4.138855e+00   1.100544e+03   -6.440750e+02	3.231846e+04   1.345078e+05   4.220834e+03   -5.759624e+03
4.178408e+00   1.101516e+03   -6.517671e+02	3.224760e+04   1.354889e+05   4.105949e+03   -5.802140e+03
4.217960e+00   1.080329e+03   -6.554662e+02	3.217038e+04   1.364385e+05   4.025753e+03   -5.735693e+03
4.257512e+00   1.073364e+03   -6.758009e+02	3.213615e+04   1.375683e+05   3.957095e+03   -5.722188e+03
4.297064e+00   1.049127e+03   -6.820740e+02	3.207878e+04   1.385946e+05   3.843814e+03   -5.664846e+03
4.336616e+00   1.015485e+03   -6.893023e+02	3.204239e+04   1.397042e+05   3.772330e+03   -5.557964e+03
4.376168e+00   1.012706e+03   -6.984234e+02	3.198631e+04   1.407275e+05   3.679164e+03   -5.571688e+03
4.415720e+00   9.908402e+02   -7.082638e+02	3.190094e+04   1.416170e+05   3.629199e+03   -5.493878e+03
4.455272e+00   9.778080e+02   -7.198714e+02	3.182835e+04   1.425563e+05   3.606093e+03   -5.459128e+03
4.494825e+00   9.876456e+02   -7.260661e+02	3.179337e+04   1.436579e+05   3.564734e+03   -5.517115e+03
4.534377e+00   9.510449e+02   -7.348253e+02	3.176601e+04   1.447930e+05   3.503771e+03   -5.395648e+03
4.573929e+00   9.428865e+02   -7.373041e+02	3.171646e+04   1.458221e+05   3.385742e+03   -5.378827e+03
4.613481e+00   9.359320e+02   -7.474319e+02	3.170135e+04   1.470073e+05   3.400399e+03   -5.386253e+03
4.653033e+00   9.386800e+02   -7.583635e+02	3.161792e+04   1.478754e+05   3.339958e+03   -5.410198e+03
4.692585e+00   9.141247e+02   -7.543508e+02	3.152913e+04   1.487082e+05   3.164582e+03   -5.354084e+03
4.732137e+00   9.445684e+02   -7.666348e+02	3.148647e+04   1.497546e+05   3.132602e+03   -5.489116e+03
4.771689e+00   9.181810e+02   -7.765764e+02	3.140463e+04   1.506113e+05   2.986160e+03   -5.399725e+03
4.811242e+00   8.972815e+02   -7.838784e+02	3.135961e+04   1.516372e+05   2.848155e+03   -5.332951e+03
4.850794e+00   9.161821e+02   -7.967480e+02	3.129868e+04   1.525842e+05   2.760628e+03   -5.440362e+03
4.890346e+00   8.924886e+02   -7.974561e+02	3.124617e+04   1.535656e+05   2.715702e+03   -5.349473e+03
4.929898e+00   8.965479e+02   -8.128630e+02	3.121495e+04   1.546502e+05   2.719461e+03   -5.375936e+03
4.969450e+00   8.881096e+02   -8.135851e+02	3.113842e+04   1.555032e+05   2.634667e+03   -5.363467e+03
5.009002e+00   8.754391e+02   -8.192312e+02	3.108884e+04   1.564889e+05   2.445121e+03   -5.339006e+03
5.048554e+00   8.591422e+02   -8.216077e+02	3.104408e+04   1.574912e+05   2.313595e+03   -5.295340e+03
5.088106e+00   8.640209e+02   -8.250675e+02	3.100819e+04   1.585368e+05   2.263739e+03   -5.348578e+03
5.127659e+00   8.532727e+02   -8.315695e+02	3.094176e+04   1.594241e+05   2.211247e+03   -5.314209e+03
5.167211e+00   8.513730e+02   -8.460889e+02	3.089575e+04   1.604124e+05   2.123370e+03   -5.320345e+03
5.206763e+00   8.390298e+02   -8.484533e+02	3.085134e+04   1.614034e+05   2.087493e+03   -5.267962e+03
5.246315e+00   8.269566e+02   -8.565986e+02	3.079169e+04   1.623125e+05   1.939805e+03   -5.245179e+03
5.285867e+00   8.177165e+02   -8.602681e+02	3.073313e+04   1.632212e+05   1.833275e+03   -5.224198e+03
5.325419e+00   8.163366e+02   -8.628794e+02	3.066136e+04   1.640540e+05   1.802659e+03   -5.235474e+03
5.364971e+00   8.272886e+02   -8.624028e+02	3.060760e+04   1.649775e+05   1.775515e+03   -5.317947e+03
5.404524e+00   8.052541e+02   -8.715278e+02	3.052923e+04   1.657674e+05   1.593279e+03   -5.227922e+03
5.444076e+00   8.069151e+02   -8.771790e+02	3.045602e+04   1.665773e+05   1.422466e+03   -5.255635e+03
5.483628e+00   8.300789e+02   -8.846091e+02	3.040084e+04   1.674803e+05   1.371417e+03   -5.389882e+03
5.523180e+00   8.229515e+02   -8.868380e+02	3.037522e+04   1.685409e+05   1.290934e+03   -5.392400e+03
5.562732e+00   8.063632e+02   -8.870761e+02	3.030450e+04   1.693481e+05   1.176060e+03   -5.338479e+03
5.602284e+00   7.900425e+02   -8.905794e+02	3.023666e+04   1.701673e+05   1.099128e+03   -5.267390e+03
5.641836e+00   7.845818e+02   -8.891834e+02	3.018233e+04   1.710561e+05   9.557366e+02   -5.266214e+03
5.681388e+00   7.788076e+02   -8.910627e+02	3.011723e+04   1.718805e+05   8.756612e+02   -5.269471e+03
5.720941e+00   7.673027e+02   -8.952984e+02	3.005313e+04   1.727064e+05   7.844020e+02   -5.229941e+03
5.760493e+00   7.721575e+02   -9.001079e+02	3.000278e+04   1.736049e+05   7.252908e+02   -5.270180e+03
5.800045e+00   7.573856e+02   -8.998346e+02	2.997007e+04   1.746012e+05   5.937728e+02   -5.216504e+03
5.839597e+00   7.624512e+02   -9.015990e+02	2.988151e+04   1.752689e+05   4.991667e+02   -5.261009e+03
5.879149e+00   7.636824e+02   -9.027161e+02	2.982153e+04   1.760986e+05   4.565163e+02   -5.301488e+03
5.918701e+00   7.890938e+02   -9.110728e+02	2.978324e+04   1.770524e+05   4.006313e+02   -5.464167e+03
5.958253e+00   7.581646e+02   -8.992019e+02	2.975049e+04   1.780320e+05   3.668058e+02   -5.325498e+03
5.997805e+00   7.464930e+02   -9.030697e+02	2.969098e+04   1.788521e+05   2.162698e+02   -5.286946e+03
6.037358e+00   7.494861e+02   -9.101149e+02	2.963638e+04   1.796986e+05   8.566907e+01   -5.320985e+03
6.076910e+00   7.649425e+02   -9.053935e+02	2.955002e+04   1.803440e+05   -1.030471e+02   -5.442127e+03
6.116462e+00   7.750315e+02   -9.032137e+02	2.948595e+04   1.811200e+05   -2.154091e+02   -5.533875e+03
6.156014e+00   7.499717e+02   -9.026732e+02	2.942125e+04   1.818873e+05   -3.645636e+02   -5.430104e+03
6.195566e+00   7.526299e+02   -9.029721e+02	2.938667e+04   1.828362e+05   -4.747049e+02   -5.457982e+03
6.235118e+00   7.675132e+02   -9.012609e+02	2.932516e+04   1.836133e+05   -5.336827e+02   -5.582400e+03
6.274670e+00   7.781639e+02   -9.468052e+02	2.927074e+04   1.844420e+05   -6.281383e+02   -5.611248e+03
6.314222e+00   7.593339e+02   -1.124030e+03	2.924768e+04   1.855051e+05   -7.391537e+02   -5.353691e+03
6.353775e+00   7.471750e+02   -1.165403e+03	2.918163e+04   1.862533e+05   -8.521813e+02   -5.247779e+03
6.393327e+00   7.265238e+02   -1.164162e+03	2.912297e+04   1.870339e+05   -1.047519e+03   -5.157513e+03
6.432879e+00   7.188175e+02   -1.163561e+03	2.910251e+04   1.880528e+05   -1.161961e+03   -5.133897e+03
6.472431e+00   7.175440e+02   -1.162976e+03	2.907170e+04   1.890050e+05   -1.310412e+03   -5.154326e+03
6.511983e+00   6.977449e+02   -1.161308e+03	2.907193e+04   1.901570e+05   -1.496742e+03   -5.056754e+03
6.551535e+00   6.886157e+02   -1.151980e+03	2.903747e+04   1.910775e+05   -1.642504e+03   -5.028395e+03
6.591087e+00   6.777777e+02   -1.159133e+03	2.898553e+04   1.918879e+05   -1.873837e+03   -4.984954e+03
6.630639e+00   6.708230e+02   -1.150645e+03	2.896946e+04   1.929247e+05   -1.990840e+03   -4.969386e+03
6.670192e+00   6.599758e+02   -1.148577e+03	2.895662e+04   1.939848e+05   -2.106796e+03   -4.939059e+03
6.709744e+00   6.522615e+02   -1.150132e+03	2.890012e+04   1.947521e+05   -2.219753e+03   -4.906557e+03
6.749296e+00   6.279789e+02   -1.142443e+03	2.887702e+04   1.957374e+05   -2.469346e+03   -4.784709e+03
6.788848e+00   6.226380e+02   -1.140395e+03	2.886296e+04   1.967843e+05   -2.637694e+03   -4.788868e+03
6.828400e+00   6.375341e+02   -1.144183e+03	2.881553e+04   1.976035e+05   -2.748583e+03   -4.898600e+03
6.867952e+00   6.038689e+02   -1.133483e+03	2.879428e+04   1.985941e+05   -2.940544e+03   -4.709220e+03
6.907504e+00   6.080074e+02   -1.132758e+03	2.877211e+04   1.995794e+05   -3.047857e+03   -4.763233e+03
6.947056e+00   5.985225e+02   -1.134927e+03	2.873727e+04   2.004772e+05   -3.237115e+03   -4.726158e+03
6.986609e+00   5.927522e+02   -1.133991e+03	2.872120e+04   2.015014e+05   -3.296760e+03   -4.702471e+03
7.026161e+00   5.947492e+02   -1.134231e+03	2.869764e+04   2.024726e+05   -3.403230e+03   -4.744694e+03
7.065713e+00   5.810539e+02   -1.128134e+03	2.867970e+04   2.034791e+05   -3.587502e+03   -4.680509e+03
7.105265e+00   5.738502e+02   -1.127718e+03	2.862697e+04   2.042392e+05   -3.781231e+03   -4.649607e+03
7.144817e+00   5.691767e+02   -1.128324e+03	2.859143e+04   2.051193e+05   -3.929377e+03   -4.645664e+03
7.184369e+00   5.496592e+02   -1.124543e+03	2.861706e+04   2.064323e+05   -4.092530e+03   -4.539349e+03
7.223921e+00   5.563827e+02   -1.127751e+03	2.856995e+04   2.072265e+05   -4.279494e+03   -4.611682e+03
7.263474e+00   5.483163e+02   -1.125028e+03	2.854906e+04   2.082031e+05   -4.381351e+03   -4.574992e+03
7.303026e+00   5.412934e+02   -1.118538e+03	2.849874e+04   2.089627e+05   -4.573165e+03   -4.552395e+03
7.342578e+00   5.389312e+02   -1.117196e+03	2.846489e+04   2.098420e+05   -4.745961e+03   -4.563383e+03
7.382130e+00   5.315515e+02   -1.115173e+03	2.843906e+04   2.107771e+05   -4.921141e+03   -4.530373e+03
7.421682e+00   5.192210e+02   -1.116893e+03	2.840916e+04   2.116818e+05   -5.094479e+03   -4.468135e+03
7.461234e+00   5.189947e+02   -1.117449e+03	2.838880e+04   2.126542e+05   -5.251692e+03   -4.484738e+03
7.500786e+00   5.235084e+02   -1.110765e+03	2.836072e+04   2.135629e+05   -5.434506e+03   -4.550346e+03
7.540338e+00   5.029407e+02   -1.111481e+03	2.833913e+04   2.145245e+05   -5.644119e+03   -4.426755e+03
7.579891e+00   5.099048e+02   -1.111798e+03	2.830531e+04   2.153894e+05   -5.745285e+03   -4.498742e+03
7.619443e+00   5.009453e+02   -1.110500e+03	2.827920e+04   2.163093e+05   -5.887996e+03   -4.466357e+03
7.658995e+00   4.807572e+02   -1.101185e+03	2.826148e+04   2.172891e+05   -6.028435e+03   -4.325564e+03
7.698547e+00   4.825209e+02   -1.103859e+03	2.821413e+04   2.180443e+05   -6.216299e+03   -4.365898e+03
7.738099e+00   4.707620e+02   -1.100011e+03	2.818657e+04   2.189468e+05   -6.336002e+03   -4.299879e+03
7.777651e+00   4.764550e+02   -1.101153e+03	2.815545e+04   2.198198e+05   -6.470727e+03   -4.362138e+03
7.817203e+00   4.891891e+02   -1.105653e+03	2.808087e+04   2.203527e+05   -6.685768e+03   -4.478845e+03
7.856755e+00   4.853904e+02   -1.097912e+03	2.807909e+04   2.214469e+05   -6.857451e+03   -4.475056e+03
7.896308e+00   4.673666e+02   -1.101518e+03	2.807199e+04   2.225038e+05   -7.003597e+03   -4.360132e+03
7.935860e+00   4.687811e+02   -1.095072e+03	2.803593e+04   2.233256e+05   -7.232067e+03   -4.396169e+03
7.975412e+00   4.559575e+02   -1.095397e+03	2.800152e+04   2.241606e+05   -7.387867e+03   -4.313439e+03
8.014964e+00   4.429013e+02   -1.089549e+03	2.799382e+04   2.252057e+05   -7.552056e+03   -4.235194e+03
8.054516e+00   4.637083e+02   -1.097722e+03	2.797497e+04   2.261643e+05   -7.746318e+03   -4.421700e+03
8.094068e+00   4.687543e+02   -1.094659e+03	2.796567e+04   2.271934e+05   -7.930610e+03   -4.486087e+03
8.133620e+00   4.646237e+02   -1.091186e+03	2.791357e+04   2.278758e+05   -8.100972e+03   -4.476928e+03
8.173172e+00   4.495740e+02   -1.097287e+03	2.787370e+04   2.286577e+05   -8.204407e+03   -4.376529e+03
8.212725e+00   4.166331e+02   -1.084015e+03	2.784150e+04   2.294906e+05   -8.341016e+03   -4.143157e+03
8.252277e+00   4.169640e+02   -1.077515e+03	2.780408e+04   2.302798e+05   -8.480343e+03   -4.151303e+03
8.291829e+00   4.270924e+02   -1.087405e+03	2.778335e+04   2.312133e+05   -8.628898e+03   -4.257182e+03
8.331381e+00   4.287638e+02   -1.084781e+03	2.775671e+04   2.320903e+05   -8.776948e+03   -4.299028e+03
8.370933e+00   4.193672e+02   -1.076418e+03	2.773308e+04   2.329863e+05   -8.987395e+03   -4.237344e+03
8.410485e+00   4.266262e+02   -1.080463e+03	2.769454e+04   2.337615e+05   -9.117380e+03   -4.317268e+03
8.450037e+00   4.198869e+02   -1.081130e+03	2.765089e+04   2.344895e+05   -9.197896e+03   -4.285049e+03
8.489589e+00   4.313596e+02   -1.083279e+03	2.760215e+04   2.351703e+05   -9.372728e+03   -4.390943e+03
8.529142e+00   4.196631e+02   -1.078166e+03	2.759275e+04   2.361799e+05   -9.539554e+03   -4.312322e+03
8.568694e+00   4.120466e+02   -1.076420e+03	2.757655e+04   2.371330e+05   -9.715047e+03   -4.271093e+03
8.608246e+00   4.034407e+02   -1.072855e+03	2.754832e+04   2.379804e+05   -9.909457e+03   -4.235120e+03
8.647798e+00   4.040590e+02   -1.072173e+03	2.752552e+04   2.388715e+05   -1.005873e+04   -4.247894e+03
8.687350e+00   3.965696e+02   -1.072195e+03	2.748708e+04   2.396278e+05   -1.022791e+04   -4.199555e+03
8.726902e+00   3.870717e+02   -1.069083e+03	2.745581e+04   2.404417e+05   -1.038710e+04   -4.140358e+03
8.766454e+00   3.916107e+02   -1.066345e+03	2.740870e+04   2.411130e+05   -1.053276e+04   -4.205796e+03
8.806006e+00   3.855284e+02   -1.064787e+03	2.740488e+04   2.421636e+05   -1.068592e+04   -4.176248e+03
8.845559e+00   3.701409e+02   -1.061481e+03	2.736359e+04   2.428818e+05   -1.080836e+04   -4.057087e+03
8.885111e+00   3.726735e+02   -1.059002e+03	2.730287e+04   2.434237e+05   -1.095687e+04   -4.094269e+03
8.924663e+00   3.741647e+02   -1.063212e+03	2.729398e+04   2.444272e+05   -1.110460e+04   -4.123143e+03
8.964215e+00   3.660740e+02   -1.063993e+03	2.725307e+04   2.451401e+05   -1.130418e+04   -4.072619e+03
9.003767e+00   3.678049e+02   -1.058443e+03	2.721139e+04   2.458416e+05   -1.145949e+04   -4.111307e+03
9.043319e+00   3.787615e+02   -1.057725e+03	2.716009e+04   2.464539e+05   -1.162417e+04   -4.221298e+03
9.082871e+00   3.727830e+02   -1.058165e+03	2.712283e+04   2.471900e+05   -1.175133e+04   -4.192014e+03
9.122424e+00   3.621704e+02   -1.054440e+03	2.710804e+04   2.481280e+05   -1.188134e+04   -4.115494e+03
9.161976e+00   3.481711e+02   -1.049295e+03	2.706132e+04   2.487699e+05   -1.204235e+04   -4.000834e+03
9.201528e+00   3.575613e+02   -1.055651e+03	2.702684e+04   2.495264e+05   -1.221929e+04   -4.097770e+03
9.241080e+00   3.600704e+02   -1.054673e+03	2.700271e+04   2.503722e+05   -1.235796e+04   -4.151998e+03
9.280632e+00   3.704158e+02   -1.053040e+03	2.695454e+04   2.509931e+05   -1.248366e+04   -4.257282e+03
9.320184e+00   3.663847e+02   -1.048032e+03	2.691174e+04   2.516586e+05   -1.270016e+04   -4.246241e+03
9.359736e+00   3.473355e+02   -1.045735e+03	2.688322e+04   2.524558e+05   -1.281404e+04   -4.085140e+03
9.399288e+00   3.555265e+02   -1.047886e+03	2.681841e+04   2.529115e+05   -1.292282e+04   -4.180978e+03
9.438841e+00   3.427221e+02   -1.039356e+03	2.681344e+04   2.539217e+05   -1.313576e+04   -4.069975e+03
9.478393e+00   3.415083e+02   -1.044075e+03	2.680102e+04   2.548674e+05   -1.330669e+04   -4.089794e+03
9.517945e+00   3.572350e+02   -1.044566e+03	2.674063e+04   2.553547e+05   -1.347185e+04   -4.255493e+03
9.557497e+00   3.358794e+02   -1.036209e+03	2.672432e+04   2.562516e+05   -1.362531e+04   -4.076593e+03
9.597049e+00   3.260185e+02   -1.031552e+03	2.665956e+04   2.566852e+05   -1.375943e+04   -3.991737e+03
9.636601e+00   3.194063e+02   -1.033849e+03	2.663463e+04   2.575022e+05   -1.394655e+04   -3.945493e+03
9.676153e+00   3.353329e+02   -1.039821e+03	2.661202e+04   2.583406e+05   -1.409348e+04   -4.115290e+03
9.715705e+00   3.524424e+02   -1.037682e+03	2.658291e+04   2.591096e+05   -1.417664e+04   -4.291653e+03
9.755258e+00   3.512095e+02   -1.037119e+03	2.654736e+04   2.598138e+05   -1.434118e+04   -4.303012e+03
9.794810e+00   3.366532e+02   -1.037034e+03	2.649967e+04   2.603980e+05   -1.449078e+04   -4.168160e+03
9.834362e+00   3.268665e+02   -1.033983e+03	2.646514e+04   2.611059e+05   -1.463874e+04   -4.101316e+03
9.873914e+00   3.205904e+02   -1.020930e+03	2.640799e+04   2.615818e+05   -1.482158e+04   -4.061039e+03
9.913466e+00   3.181380e+02   -1.027064e+03	2.637247e+04   2.622794e+05   -1.499804e+04   -4.051946e+03
9.953018e+00   3.175368e+02   -1.024170e+03	2.635185e+04   2.631155e+05   -1.513340e+04   -4.061447e+03
9.992570e+00   3.020040e+02   -1.020641e+03	2.631702e+04   2.638086e+05   -1.528532e+04   -3.928976e+03
1.003212e+01   2.955160e+02   -1.017264e+03	2.627542e+04   2.644310e+05   -1.540136e+04   -3.885816e+03
1.007167e+01   2.981913e+02   -1.013220e+03	2.620429e+04   2.647529e+05   -1.560257e+04   -3.926712e+03
1.011123e+01   3.170408e+02   -1.021815e+03	2.617836e+04   2.655317e+05   -1.575804e+04   -4.122545e+03
1.015078e+01   3.293559e+02   -1.015159e+03	2.614129e+04   2.661873e+05   -1.582738e+04   -4.261157e+03
1.019033e+01   3.259222e+02   -1.026712e+03	2.613424e+04   2.671576e+05   -1.601319e+04   -4.245391e+03
1.022988e+01   3.111505e+02   -1.018231e+03	2.609780e+04   2.678142e+05   -1.618026e+04   -4.123099e+03
1.026944e+01   3.203640e+02   -1.015356e+03	2.606318e+04   2.684893e+05   -1.627263e+04   -4.214866e+03
1.030899e+01   3.075397e+02   -1.008019e+03	2.602625e+04   2.691369e+05   -1.645210e+04   -4.107667e+03
1.034854e+01   3.197355e+02   -1.018995e+03	2.595625e+04   2.694486e+05   -1.657085e+04   -4.255887e+03
1.038809e+01   3.120117e+02   -1.010735e+03	2.592521e+04   2.701485e+05   -1.672533e+04   -4.193304e+03
1.042764e+01   2.879258e+02   -1.004696e+03	2.591904e+04   2.711070e+05   -1.686826e+04   -3.959172e+03
1.046720e+01   2.932693e+02   -1.004602e+03	2.589475e+04   2.718788e+05   -1.697223e+04   -4.029571e+03
1.050675e+01   2.872264e+02   -1.004122e+03	2.586886e+04   2.726308e+05   -1.718693e+04   -3.978246e+03
1.054630e+01   2.795183e+02   -1.002126e+03	2.581678e+04   2.731046e+05   -1.732962e+04   -3.916455e+03
1.058585e+01   2.893205e+02   -1.002124e+03	2.576186e+04   2.735459e+05   -1.743594e+04   -4.039375e+03
1.062540e+01   2.966584e+02   -1.004210e+03	2.574645e+04   2.744020e+05   -1.762334e+04   -4.125627e+03
1.066496e+01   3.054423e+02   -1.005966e+03	2.570483e+04   2.749779e+05   -1.776617e+04   -4.233367e+03
1.070451e+01   3.067131e+02   -1.003686e+03	2.563001e+04   2.751933e+05   -1.789664e+04   -4.265102e+03
1.074406e+01   2.962212e+02   -9.976610e+02	2.556841e+04   2.755429e+05   -1.802391e+04   -4.167017e+03
1.078361e+01   2.836786e+02   -9.914603e+02	2.554760e+04   2.763271e+05   -1.815336e+04   -4.049712e+03
1.082316e+01   2.867751e+02   -9.941634e+02	2.553294e+04   2.771805e+05   -1.832504e+04   -4.101671e+03
1.086272e+01   2.907080e+02   -9.944092e+02	2.548254e+04   2.776438e+05   -1.846017e+04   -4.153522e+03
1.090227e+01   2.632142e+02   -9.904415e+02	2.545785e+04   2.783815e+05   -1.860072e+04   -3.876433e+03
1.094182e+01   2.636179e+02   -9.871358e+02	2.539243e+04   2.786716e+05   -1.868527e+04   -3.891144e+03
1.098137e+01   2.649302e+02   -9.894441e+02	2.536917e+04   2.794224e+05   -1.887090e+04   -3.927126e+03
1.102093e+01   2.717387e+02   -9.822290e+02	2.532870e+04   2.799761e+05   -1.903983e+04   -4.009612e+03
1.106048e+01   2.880710e+02   -9.909997e+02	2.529103e+04   2.805672e+05   -1.917873e+04   -4.210407e+03
1.110003e+01   2.916160e+02   -9.878498e+02	2.525668e+04   2.811854e+05   -1.932950e+04   -4.260031e+03
1.113958e+01   2.815637e+02   -9.819086e+02	2.524245e+04   2.820226e+05   -1.943708e+04   -4.166539e+03
1.117913e+01   2.646101e+02   -9.810240e+02	2.520704e+04   2.826253e+05   -1.959265e+04   -3.996753e+03
1.121869e+01   2.634802e+02   -9.789669e+02	2.516637e+04   2.831653e+05   -1.972376e+04   -3.985140e+03
1.125824e+01   2.559775e+02   -9.790337e+02	2.510854e+04   2.835109e+05   -1.986611e+04   -3.917747e+03
1.129779e+01   2.590781e+02   -9.815260e+02	2.506466e+04   2.840110e+05   -2.004306e+04   -3.983451e+03
1.133734e+01   2.642170e+02   -9.727788e+02	2.503161e+04   2.846227e+05   -2.013733e+04   -4.041083e+03
1.137689e+01   2.491131e+02   -9.714011e+02	2.499465e+04   2.851925e+05   -2.032777e+04   -3.896688e+03
1.141645e+01   2.459074e+02   -9.655691e+02	2.493516e+04   2.854988e+05   -2.041800e+04   -3.867742e+03
1.145600e+01   2.476953e+02   -9.681213e+02	2.487152e+04   2.857582e+05   -2.053279e+04   -3.903626e+03
1.149555e+01   2.697714e+02   -9.733406e+02	2.483943e+04   2.863770e+05   -2.069366e+04   -4.160385e+03
1.153510e+01   2.680070e+02   -9.712244e+02	2.481585e+04   2.870866e+05   -2.085030e+04   -4.158915e+03
1.157466e+01   2.653501e+02   -9.692892e+02	2.475662e+04   2.873821e+05   -2.094985e+04   -4.138017e+03
1.161421e+01   2.532993e+02   -9.643772e+02	2.470854e+04   2.878014e+05   -2.107928e+04   -4.023570e+03
1.165376e+01   2.550732e+02   -9.619999e+02	2.465244e+04   2.881233e+05   -2.117974e+04   -4.052427e+03
1.169331e+01   2.552535e+02   -9.627577e+02	2.463434e+04   2.888883e+05   -2.132138e+04   -4.064926e+03
1.173286e+01   2.645460e+02   -9.604155e+02	2.459926e+04   2.894501e+05   -2.146642e+04   -4.188667e+03
1.177242e+01   2.656872e+02   -9.638752e+02	2.459529e+04   2.903791e+05   -2.161219e+04   -4.216529e+03
1.181197e+01   2.451511e+02   -9.559048e+02	2.455691e+04   2.908945e+05   -2.175677e+04   -3.996898e+03
1.185152e+01   2.520410e+02   -9.616681e+02	2.450676e+04   2.912755e+05   -2.189183e+04   -4.092139e+03
1.189107e+01   2.547102e+02   -9.549832e+02	2.446815e+04   2.917825e+05   -2.207181e+04   -4.134522e+03
1.193062e+01   2.487585e+02   -9.477254e+02	2.437015e+04   2.915783e+05   -2.217590e+04   -4.075299e+03
1.197018e+01   2.518324e+02   -9.509383e+02	2.434007e+04   2.921843e+05   -2.229349e+04   -4.124219e+03
1.200973e+01   2.542129e+02   -9.508847e+02	2.430239e+04   2.926945e+05   -2.238047e+04   -4.165930e+03
1.204928e+01   2.476922e+02   -9.496575e+02	2.426802e+04   2.932428e+05   -2.255389e+04   -4.108885e+03
1.208883e+01   2.413435e+02   -9.438224e+02	2.420928e+04   2.934886e+05   -2.265909e+04   -4.035479e+03
1.212839e+01   2.419906e+02   -9.404490e+02	2.415309e+04   2.937634e+05   -2.277598e+04   -4.058363e+03
1.216794e+01   2.396859e+02   -9.367910e+02	2.411136e+04   2.942098e+05   -2.288043e+04   -4.053614e+03
1.220749e+01   2.370361e+02   -9.409183e+02	2.406362e+04   2.945845e+05   -2.303922e+04   -4.036306e+03
1.224704e+01   2.384741e+02   -9.368956e+02	2.404600e+04   2.953177e+05   -2.315715e+04   -4.053798e+03
1.228659e+01   2.379909e+02   -9.394861e+02	2.403137e+04   2.960916e+05   -2.332986e+04   -4.065867e+03
1.232615e+01   2.344512e+02   -9.352890e+02	2.398059e+04   2.964141e+05   -2.346740e+04   -4.036099e+03
1.236570e+01   2.327680e+02   -9.363525e+02	2.392907e+04   2.967275e+05   -2.358838e+04   -4.030977e+03
1.240525e+01   2.191615e+02   -9.308073e+02	2.390661e+04   2.973919e+05   -2.368754e+04   -3.873119e+03
1.244480e+01   2.279892e+02   -9.277593e+02	2.386375e+04   2.978024e+05   -2.378421e+04   -3.988006e+03
1.248435e+01   2.288249e+02   -9.296679e+02	2.380258e+04   2.979854e+05   -2.389086e+04   -4.016718e+03
1.252391e+01   2.280113e+02   -9.343699e+02	2.375138e+04   2.982898e+05   -2.402050e+04   -4.029798e+03
1.256346e+01   2.343624e+02   -9.282563e+02	2.373049e+04   2.989624e+05   -2.411903e+04   -4.110880e+03
1.260301e+01   2.216997e+02   -9.211918e+02	2.367943e+04   2.992541e+05   -2.423783e+04   -3.969701e+03
1.264256e+01   2.074779e+02   -9.176692e+02	2.365660e+04   2.999000e+05   -2.439774e+04   -3.808355e+03
1.268211e+01   2.188803e+02   -9.195708e+02	2.356641e+04   2.996946e+05   -2.450905e+04   -3.954827e+03
1.272167e+01   2.338193e+02   -9.176080e+02	2.349757e+04   2.997500e+05   -2.460166e+04   -4.147653e+03
1.276122e+01   2.209026e+02   -9.187191e+02	2.344407e+04   2.999993e+05   -2.474430e+04   -4.007232e+03
1.280077e+01   2.233958e+02   -9.101591e+02	2.340999e+04   3.004836e+05   -2.483198e+04   -4.041169e+03
1.284032e+01   2.150339e+02   -9.126825e+02	2.336874e+04   3.008835e+05   -2.495435e+04   -3.952395e+03
1.287988e+01   2.040584e+02   -9.077466e+02	2.331954e+04   3.011720e+05   -2.507574e+04   -3.824924e+03
1.291943e+01   2.138473e+02   -9.040740e+02	2.327539e+04   3.015209e+05   -2.516812e+04   -3.960764e+03
1.295898e+01   2.140190e+02   -9.058857e+02	2.325288e+04   3.021523e+05   -2.533299e+04   -3.972301e+03
1.299853e+01   2.111003e+02   -9.043407e+02	2.320867e+04   3.024972e+05   -2.544467e+04   -3.949812e+03
1.303808e+01   2.058090e+02   -8.984683e+02	2.317206e+04   3.029342e+05   -2.557587e+04   -3.891068e+03
1.307764e+01   2.078532e+02   -9.011031e+02	2.314884e+04   3.035499e+05   -2.568987e+04   -3.929014e+03
1.311719e+01   2.157258e+02   -9.030125e+02	2.311114e+04   3.039726e+05   -2.578767e+04   -4.045796e+03
1.315674e+01   2.227881e+02   -9.004977e+02	2.303622e+04   3.039000e+05   -2.585906e+04   -4.154242e+03
1.319629e+01   2.293208e+02   -9.004348e+02	2.300210e+04   3.043615e+05   -2.597527e+04   -4.249048e+03
1.323584e+01   2.112173e+02   -8.978080e+02	2.294305e+04   3.044886e+05   -2.608962e+04   -4.019918e+03