TITLE = "Grid: prim/mr_v4.2_no_tail_wing_v2_wing_set_0.17_targ_coarse_lvl_2.grid, Pointdata: sol/sol.pval.unsteady_i=1900_t=3.8000000e-01" 
VARIABLES = "Y", fx, fy, fz, mx, my, mz
#
# Force distributions of the components 
#
ZONE T="DISTR      Wing", F=POINT 
1.923936e+00   0.000000e+00   0.000000e+00	0.000000e+00   0.000000e+00   0.000000e+00   0.000000e+00
1.963488e+00   2.955421e+03   -3.965107e+02	3.508122e+04   6.960652e+04   1.100043e+04   -6.725548e+03
2.003041e+00   2.895353e+03   -3.718472e+02	3.518441e+04   7.120318e+04   1.072566e+04   -6.795399e+03
2.042593e+00   2.781952e+03   -3.596660e+02	3.526192e+04   7.275359e+04   1.059816e+04   -6.770552e+03
2.082145e+00   2.672487e+03   -3.499130e+02	3.540379e+04   7.444311e+04   1.050539e+04   -6.728343e+03
2.121697e+00   2.572852e+03   -3.508571e+02	3.548621e+04   7.601998e+04   1.039964e+04   -6.681039e+03
2.161249e+00   2.514477e+03   -3.497391e+02	3.557409e+04   7.761626e+04   1.026772e+04   -6.701270e+03
2.200801e+00   2.476354e+03   -3.541375e+02	3.560412e+04   7.909044e+04   1.001433e+04   -6.736253e+03
2.240353e+00   2.375192e+03   -3.597990e+02	3.563327e+04   8.056531e+04   9.856089e+03   -6.658209e+03
2.279905e+00   2.313257e+03   -3.520934e+02	3.564388e+04   8.199902e+04   9.738823e+03   -6.645021e+03
2.319458e+00   2.234978e+03   -3.474476e+02	3.567169e+04   8.347371e+04   9.628890e+03   -6.621194e+03
2.359010e+00   2.219659e+03   -3.564864e+02	3.566603e+04   8.487292e+04   9.438034e+03   -6.668982e+03
2.398562e+00   2.187849e+03   -3.647658e+02	3.571353e+04   8.639696e+04   9.306990e+03   -6.682626e+03
2.438114e+00   2.207022e+03   -3.706669e+02	3.569359e+04   8.776113e+04   9.173186e+03   -6.813276e+03
2.477666e+00   2.140261e+03   -3.691915e+02	3.564591e+04   8.905600e+04   9.040676e+03   -6.771004e+03
2.517218e+00   2.111286e+03   -3.842938e+02	3.563133e+04   9.042996e+04   8.938661e+03   -6.753960e+03
2.556770e+00   2.021514e+03   -3.771493e+02	3.563841e+04   9.185621e+04   8.946733e+03   -6.651225e+03
2.596322e+00   1.965983e+03   -3.867657e+02	3.563974e+04   9.326835e+04   8.866065e+03   -6.608910e+03
2.635875e+00   1.929354e+03   -3.862310e+02	3.560840e+04   9.459549e+04   8.791935e+03   -6.597695e+03
2.675427e+00   1.923731e+03   -4.088584e+02	3.558498e+04   9.594200e+04   8.692146e+03   -6.632800e+03
2.714979e+00   1.884721e+03   -4.167770e+02	3.555027e+04   9.725583e+04   8.607166e+03   -6.585110e+03
2.754531e+00   1.860350e+03   -4.232884e+02	3.550262e+04   9.853083e+04   8.446386e+03   -6.600359e+03
2.794083e+00   1.836457e+03   -4.259430e+02	3.546332e+04   9.982287e+04   8.360298e+03   -6.617773e+03
2.833635e+00   1.840545e+03   -4.381526e+02	3.545524e+04   1.012030e+05   8.367494e+03   -6.667974e+03
2.873187e+00   1.797566e+03   -4.522917e+02	3.540133e+04   1.024520e+05   8.201243e+03   -6.608255e+03
2.912739e+00   1.767671e+03   -4.561880e+02	3.534475e+04   1.036863e+05   8.200866e+03   -6.581466e+03
2.952292e+00   1.729831e+03   -4.639925e+02	3.530219e+04   1.049583e+05   8.149547e+03   -6.547852e+03
2.991844e+00   1.673257e+03   -4.654674e+02	3.526623e+04   1.062465e+05   8.024412e+03   -6.460974e+03
3.031396e+00   1.670926e+03   -4.738061e+02	3.516626e+04   1.073382e+05   7.842575e+03   -6.501096e+03
3.070948e+00   1.642339e+03   -4.851272e+02	3.513480e+04   1.086326e+05   7.843464e+03   -6.470861e+03
3.110500e+00   1.631475e+03   -4.951899e+02	3.513484e+04   1.100221e+05   7.815431e+03   -6.491346e+03
3.150052e+00   1.582090e+03   -5.083180e+02	3.509056e+04   1.112722e+05   7.780815e+03   -6.371125e+03
3.189604e+00   1.570329e+03   -5.222487e+02	3.502796e+04   1.124630e+05   7.691407e+03   -6.376777e+03
3.229156e+00   1.571190e+03   -5.301458e+02	3.498976e+04   1.137235e+05   7.607380e+03   -6.439975e+03
3.268709e+00   1.561665e+03   -5.424050e+02	3.494594e+04   1.149640e+05   7.522048e+03   -6.451630e+03
3.308261e+00   1.513283e+03   -5.461217e+02	3.493762e+04   1.163188e+05   7.527807e+03   -6.349359e+03
3.347813e+00   1.488878e+03   -5.520863e+02	3.485499e+04   1.174239e+05   7.379182e+03   -6.322371e+03
3.387365e+00   1.469972e+03   -5.749851e+02	3.480937e+04   1.186500e+05   7.337211e+03   -6.291726e+03
3.426917e+00   1.465619e+03   -5.770049e+02	3.481418e+04   1.200426e+05   7.286017e+03   -6.342392e+03
3.466469e+00   1.446402e+03   -5.884587e+02	3.475815e+04   1.212252e+05   7.267367e+03   -6.292658e+03
3.506021e+00   1.420674e+03   -5.995348e+02	3.469586e+04   1.223832e+05   7.232814e+03   -6.250218e+03
3.545574e+00   1.414707e+03   -6.074625e+02	3.466060e+04   1.236300e+05   7.139571e+03   -6.279509e+03
3.585126e+00   1.413184e+03   -6.267151e+02	3.462397e+04   1.248715e+05   7.099469e+03   -6.295915e+03
3.624678e+00   1.384600e+03   -6.376774e+02	3.455525e+04   1.259923e+05   7.013453e+03   -6.227144e+03
3.664230e+00   1.362096e+03   -6.430261e+02	3.449556e+04   1.271398e+05   6.852938e+03   -6.192434e+03
3.703782e+00   1.344146e+03   -6.544490e+02	3.445379e+04   1.283515e+05   6.814985e+03   -6.182423e+03
3.743334e+00   1.333663e+03   -6.571020e+02	3.441406e+04   1.295642e+05   6.743979e+03   -6.182361e+03
3.782886e+00   1.281367e+03   -6.683582e+02	3.435180e+04   1.306911e+05   6.725955e+03   -6.030969e+03
3.822438e+00   1.282129e+03   -6.801491e+02	3.433766e+04   1.319962e+05   6.635110e+03   -6.066853e+03
3.861991e+00   1.259017e+03   -6.902011e+02	3.428915e+04   1.331674e+05   6.613995e+03   -6.007584e+03
3.901543e+00   1.247624e+03   -6.987775e+02	3.422031e+04   1.342570e+05   6.462075e+03   -6.010918e+03
3.941095e+00   1.263473e+03   -7.093788e+02	3.417162e+04   1.354198e+05   6.412764e+03   -6.106031e+03
3.980647e+00   1.242283e+03   -7.154316e+02	3.411437e+04   1.365434e+05   6.318219e+03   -6.053849e+03
4.020199e+00   1.265205e+03   -7.293264e+02	3.407922e+04   1.377525e+05   6.213104e+03   -6.177795e+03
4.059751e+00   1.232677e+03   -7.416146e+02	3.403941e+04   1.389417e+05   6.108098e+03   -6.078346e+03
4.099303e+00   1.226526e+03   -7.545215e+02	3.398783e+04   1.400777e+05   5.976880e+03   -6.082701e+03
4.138855e+00   1.212527e+03   -7.582549e+02	3.394683e+04   1.412534e+05   5.949125e+03   -6.068590e+03
4.178408e+00   1.213903e+03   -7.660338e+02	3.387786e+04   1.423073e+05   5.823139e+03   -6.118250e+03
4.217960e+00   1.192548e+03   -7.694541e+02	3.380533e+04   1.433416e+05   5.730469e+03   -6.057390e+03
4.257512e+00   1.184783e+03   -7.896247e+02	3.377387e+04   1.445482e+05   5.654281e+03   -6.046392e+03
4.297064e+00   1.160475e+03   -7.961942e+02	3.372050e+04   1.456569e+05   5.536452e+03   -5.993997e+03
4.336616e+00   1.127482e+03   -8.033552e+02	3.368905e+04   1.468533e+05   5.456145e+03   -5.895354e+03
4.376168e+00   1.125136e+03   -8.128630e+02	3.363632e+04   1.479570e+05   5.353727e+03   -5.915790e+03
4.415720e+00   1.103003e+03   -8.224848e+02	3.355292e+04   1.489208e+05   5.295487e+03   -5.842616e+03
4.455272e+00   1.089553e+03   -8.337817e+02	3.348298e+04   1.499377e+05   5.261085e+03   -5.812157e+03
4.494825e+00   1.099178e+03   -8.400504e+02	3.345030e+04   1.511154e+05   5.210943e+03   -5.874572e+03
4.534377e+00   1.062427e+03   -8.489345e+02	3.342833e+04   1.523410e+05   5.143384e+03   -5.758130e+03
4.573929e+00   1.054236e+03   -8.514603e+02	3.338258e+04   1.534536e+05   5.017957e+03   -5.746454e+03
4.613481e+00   1.047452e+03   -8.614986e+02	3.337055e+04   1.547194e+05   5.024513e+03   -5.760122e+03
4.653033e+00   1.050212e+03   -8.724658e+02	3.329205e+04   1.556769e+05   4.957024e+03   -5.789752e+03
4.692585e+00   1.025835e+03   -8.687992e+02	3.320822e+04   1.565997e+05   4.769167e+03   -5.739499e+03
4.732137e+00   1.056087e+03   -8.809108e+02	3.316751e+04   1.577222e+05   4.726897e+03   -5.879292e+03
4.771689e+00   1.029870e+03   -8.909884e+02	3.308844e+04   1.586591e+05   4.570015e+03   -5.796063e+03
4.811242e+00   1.008881e+03   -8.981339e+02	3.304592e+04   1.597641e+05   4.426409e+03   -5.734300e+03
4.850794e+00   1.027734e+03   -9.112773e+02	3.298881e+04   1.607968e+05   4.329197e+03   -5.846404e+03
4.890346e+00   1.003599e+03   -9.118099e+02	3.294009e+04   1.618638e+05   4.274872e+03   -5.759149e+03
4.929898e+00   1.007208e+03   -9.273680e+02	3.291004e+04   1.630217e+05   4.269117e+03   -5.789123e+03
4.969450e+00   9.989896e+02   -9.278469e+02	3.283822e+04   1.639655e+05   4.177920e+03   -5.782901e+03
5.009002e+00   9.860778e+02   -9.337642e+02	3.279086e+04   1.650301e+05   3.981965e+03   -5.762210e+03
5.048554e+00   9.691617e+02   -9.358197e+02	3.274850e+04   1.661122e+05   3.843268e+03   -5.721053e+03
5.088106e+00   9.739827e+02   -9.395433e+02	3.271379e+04   1.672318e+05   3.783290e+03   -5.779006e+03
5.127659e+00   9.625980e+02   -9.458846e+02	3.265223e+04   1.682119e+05   3.722000e+03   -5.747230e+03
5.167211e+00   9.603029e+02   -9.604318e+02	3.261262e+04   1.693014e+05   3.625930e+03   -5.756782e+03
5.206763e+00   9.479377e+02   -9.628455e+02	3.257014e+04   1.703708e+05   3.579603e+03   -5.709570e+03
5.246315e+00   9.358492e+02   -9.711471e+02	3.251263e+04   1.713595e+05   3.424249e+03   -5.691364e+03
5.285867e+00   9.263899e+02   -9.747519e+02	3.246021e+04   1.723691e+05   3.310001e+03   -5.674763e+03
5.325419e+00   9.241989e+02   -9.775127e+02	3.238898e+04   1.732737e+05   3.272733e+03   -5.686979e+03
5.364971e+00   9.346657e+02   -9.769238e+02	3.233667e+04   1.742736e+05   3.233561e+03   -5.771866e+03
5.404524e+00   9.122148e+02   -9.858610e+02	3.226076e+04   1.751456e+05   3.039036e+03   -5.685210e+03
5.444076e+00   9.135405e+02   -9.913447e+02	3.218588e+04   1.760153e+05   2.862393e+03   -5.716033e+03
5.483628e+00   9.369128e+02   -9.992414e+02	3.213824e+04   1.770288e+05   2.801473e+03   -5.856016e+03
5.523180e+00   9.290967e+02   -1.001387e+03	3.211607e+04   1.781775e+05   2.715130e+03   -5.860308e+03
5.562732e+00   9.117375e+02   -1.001241e+03	3.204110e+04   1.790301e+05   2.592519e+03   -5.806618e+03
5.602284e+00   8.943132e+02   -1.004731e+03	3.197822e+04   1.799463e+05   2.506115e+03   -5.734914e+03
5.641836e+00   8.879975e+02   -1.003445e+03	3.192736e+04   1.809241e+05   2.358008e+03   -5.734025e+03
5.681388e+00   8.821040e+02   -1.005167e+03	3.186407e+04   1.818280e+05   2.270365e+03   -5.741237e+03
5.720941e+00   8.701691e+02   -1.009560e+03	3.180344e+04   1.827434e+05   2.169361e+03   -5.704068e+03
5.760493e+00   8.743541e+02   -1.014401e+03	3.175655e+04   1.837316e+05   2.102045e+03   -5.745792e+03
5.800045e+00   8.587550e+02   -1.014245e+03	3.172469e+04   1.848026e+05   1.964004e+03   -5.692031e+03
5.839597e+00   8.624762e+02   -1.015210e+03	3.163593e+04   1.855386e+05   1.864682e+03   -5.733445e+03
5.879149e+00   8.633618e+02   -1.016494e+03	3.158208e+04   1.864742e+05   1.813091e+03   -5.776877e+03
5.918701e+00   8.874160e+02   -1.024727e+03	3.154260e+04   1.874911e+05   1.751019e+03   -5.936606e+03
5.958253e+00   8.561034e+02   -1.012883e+03	3.151176e+04   1.885519e+05   1.709294e+03   -5.799711e+03
5.997805e+00   8.436334e+02   -1.016763e+03	3.145683e+04   1.894697e+05   1.550003e+03   -5.761489e+03
6.037358e+00   8.462928e+02   -1.023803e+03	3.140714e+04   1.904162e+05   1.409569e+03   -5.798168e+03
6.076910e+00   8.610839e+02   -1.019057e+03	3.132303e+04   1.911455e+05   1.211788e+03   -5.919812e+03
6.116462e+00   8.694271e+02   -1.016176e+03	3.125268e+04   1.919534e+05   1.098054e+03   -6.005055e+03
6.156014e+00   8.432358e+02   -1.015704e+03	3.119101e+04   1.928097e+05   9.425958e+02   -5.898898e+03
6.195566e+00   8.455807e+02   -1.016355e+03	3.116390e+04   1.938755e+05   8.224654e+02   -5.929407e+03
6.235118e+00   8.579418e+02   -1.013702e+03	3.108954e+04   1.946427e+05   7.652086e+02   -6.042226e+03
6.274670e+00   8.684561e+02   -1.058024e+03	3.104516e+04   1.956046e+05   6.627207e+02   -6.075433e+03
6.314222e+00   8.477615e+02   -1.233412e+03	3.101462e+04   1.966920e+05   5.505894e+02   -5.814243e+03
6.353775e+00   8.347336e+02   -1.274168e+03	3.095635e+04   1.975602e+05   4.256388e+02   -5.708762e+03
6.393327e+00   8.129142e+02   -1.273560e+03	3.090372e+04   1.984502e+05   2.234033e+02   -5.615252e+03
6.432879e+00   8.033044e+02   -1.271508e+03	3.087626e+04   1.994943e+05   1.060538e+02   -5.583421e+03
6.472431e+00   8.014416e+02   -1.270963e+03	3.084962e+04   2.005440e+05   -5.067041e+01   -5.603522e+03
6.511983e+00   7.798253e+02   -1.269244e+03	3.084780e+04   2.017533e+05   -2.385694e+02   -5.497855e+03
6.551535e+00   7.699160e+02   -1.259613e+03	3.082292e+04   2.028070e+05   -3.924954e+02   -5.468183e+03
6.591087e+00   7.570105e+02   -1.265916e+03	3.075963e+04   2.036131e+05   -6.264586e+02   -5.414359e+03
6.630639e+00   7.489877e+02   -1.257872e+03	3.075001e+04   2.047634e+05   -7.492433e+02   -5.395347e+03
6.670192e+00   7.379042e+02   -1.255948e+03	3.074766e+04   2.059644e+05   -8.783289e+02   -5.367369e+03
6.709744e+00   7.289701e+02   -1.257358e+03	3.069153e+04   2.068053e+05   -9.965063e+02   -5.330180e+03
6.749296e+00   7.032954e+02   -1.249437e+03	3.066858e+04   2.078627e+05   -1.250254e+03   -5.202398e+03
6.788848e+00   6.961574e+02   -1.246742e+03	3.065290e+04   2.089694e+05   -1.421819e+03   -5.197608e+03
6.828400e+00   7.095056e+02   -1.249844e+03	3.060285e+04   2.098416e+05   -1.534502e+03   -5.299650e+03
6.867952e+00   6.730818e+02   -1.238635e+03	3.057950e+04   2.108885e+05   -1.727786e+03   -5.094930e+03
6.907504e+00   6.764965e+02   -1.238210e+03	3.056221e+04   2.119787e+05   -1.843221e+03   -5.147254e+03
6.947056e+00   6.651365e+02   -1.239524e+03	3.052706e+04   2.129451e+05   -2.037456e+03   -5.100601e+03
6.986609e+00   6.576106e+02   -1.238294e+03	3.050888e+04   2.140255e+05   -2.098057e+03   -5.067430e+03
7.026161e+00   6.582948e+02   -1.238877e+03	3.049103e+04   2.151080e+05   -2.208858e+03   -5.103509e+03
7.065713e+00   6.436618e+02   -1.232296e+03	3.047498e+04   2.161989e+05   -2.399896e+03   -5.035371e+03
7.105265e+00   6.343624e+02   -1.231214e+03	3.042082e+04   2.170198e+05   -2.599368e+03   -4.992997e+03
7.144817e+00   6.272863e+02   -1.231122e+03	3.038090e+04   2.179395e+05   -2.747791e+03   -4.974492e+03
7.184369e+00   6.053540e+02   -1.226265e+03	3.039911e+04   2.192697e+05   -2.911294e+03   -4.853337e+03
7.223921e+00   6.102731e+02   -1.229933e+03	3.035564e+04   2.201615e+05   -3.104542e+03   -4.916180e+03
7.263474e+00   6.002878e+02   -1.226031e+03	3.032952e+04   2.211704e+05   -3.209101e+03   -4.867712e+03
7.303026e+00   5.911975e+02   -1.218870e+03	3.027183e+04   2.219466e+05   -3.401900e+03   -4.832480e+03
7.342578e+00   5.866486e+02   -1.217036e+03	3.023472e+04   2.228721e+05   -3.576312e+03   -4.829794e+03
7.382130e+00   5.784213e+02   -1.214955e+03	3.021685e+04   2.239362e+05   -3.758752e+03   -4.792704e+03
7.421682e+00   5.643737e+02   -1.216014e+03	3.018474e+04   2.248949e+05   -3.933935e+03   -4.719669e+03
7.461234e+00   5.628459e+02   -1.216518e+03	3.016426e+04   2.259368e+05   -4.096710e+03   -4.728861e+03
7.500786e+00   5.652323e+02   -1.209340e+03	3.014068e+04   2.269496e+05   -4.283766e+03   -4.781365e+03
7.540338e+00   5.427172e+02   -1.209708e+03	3.011529e+04   2.279531e+05   -4.498177e+03   -4.645011e+03
7.579891e+00   5.478893e+02   -1.209802e+03	3.008578e+04   2.289211e+05   -4.608049e+03   -4.706044e+03
7.619443e+00   5.358373e+02   -1.206841e+03	3.004666e+04   2.298118e+05   -4.747253e+03   -4.651849e+03
7.658995e+00   5.136098e+02   -1.197429e+03	3.002965e+04   2.308672e+05   -4.891051e+03   -4.497465e+03
7.698547e+00   5.141175e+02   -1.199570e+03	2.998468e+04   2.317106e+05   -5.084649e+03   -4.529884e+03
7.738099e+00   5.002546e+02   -1.195794e+03	2.995532e+04   2.326696e+05   -5.208109e+03   -4.449538e+03
7.777651e+00   5.033585e+02   -1.195506e+03	2.991889e+04   2.335707e+05   -5.342175e+03   -4.493231e+03
7.817203e+00   5.163700e+02   -1.200769e+03	2.986180e+04   2.343108e+05   -5.577297e+03   -4.614679e+03
7.856755e+00   5.092196e+02   -1.191767e+03	2.984003e+04   2.353180e+05   -5.737165e+03   -4.585274e+03
7.896308e+00   4.892819e+02   -1.194480e+03	2.983007e+04   2.364217e+05   -5.886702e+03   -4.456442e+03
7.935860e+00   4.889372e+02   -1.187791e+03	2.979152e+04   2.372935e+05   -6.118481e+03   -4.479698e+03
7.975412e+00   4.743147e+02   -1.187375e+03	2.975893e+04   2.382124e+05   -6.280660e+03   -4.384370e+03
8.014964e+00   4.596537e+02   -1.181522e+03	2.974835e+04   2.393041e+05   -6.448758e+03   -4.294324e+03
8.054516e+00   4.791352e+02   -1.189064e+03	2.972580e+04   2.403023e+05   -6.648164e+03   -4.471177e+03
8.094068e+00   4.818010e+02   -1.185062e+03	2.970669e+04   2.413210e+05   -6.828992e+03   -4.517326e+03
8.133620e+00   4.766411e+02   -1.181664e+03	2.966411e+04   2.421498e+05   -7.008856e+03   -4.500889e+03
8.173172e+00   4.593276e+02   -1.186669e+03	2.962040e+04   2.429694e+05   -7.116359e+03   -4.383135e+03
8.212725e+00   4.247233e+02   -1.173325e+03	2.959050e+04   2.438905e+05   -7.259076e+03   -4.137118e+03
8.252277e+00   4.231254e+02   -1.166057e+03	2.954890e+04   2.447141e+05   -7.401369e+03   -4.130578e+03
8.291829e+00   4.309417e+02   -1.175266e+03	2.951974e+04   2.456466e+05   -7.548088e+03   -4.217354e+03
8.331381e+00   4.305790e+02   -1.172564e+03	2.949265e+04   2.465887e+05   -7.697928e+03   -4.243120e+03
8.370933e+00   4.192927e+02   -1.163059e+03	2.946596e+04   2.475273e+05   -7.914717e+03   -4.166493e+03
8.410485e+00   4.249590e+02   -1.167207e+03	2.943407e+04   2.484274e+05   -8.054957e+03   -4.234293e+03
8.450037e+00   4.161257e+02   -1.166861e+03	2.938370e+04   2.491670e+05   -8.137143e+03   -4.184225e+03
8.489589e+00   4.256727e+02   -1.168407e+03	2.932925e+04   2.498678e+05   -8.314412e+03   -4.274547e+03
8.529142e+00   4.121975e+02   -1.163095e+03	2.932062e+04   2.509524e+05   -8.486954e+03   -4.181361e+03
8.568694e+00   4.029853e+02   -1.160436e+03	2.929549e+04   2.518970e+05   -8.662938e+03   -4.125967e+03
8.608246e+00   3.928524e+02   -1.156255e+03	2.926459e+04   2.527894e+05   -8.860681e+03   -4.076611e+03
8.647798e+00   3.928029e+02   -1.155658e+03	2.924609e+04   2.537858e+05   -9.019807e+03   -4.084393e+03
8.687350e+00   3.834274e+02   -1.155168e+03	2.920098e+04   2.545521e+05   -9.191717e+03   -4.019485e+03
8.726902e+00   3.718031e+02   -1.151108e+03	2.916906e+04   2.554277e+05   -9.354800e+03   -3.941764e+03
8.766454e+00   3.746127e+02   -1.147701e+03	2.911793e+04   2.561314e+05   -9.505130e+03   -3.992233e+03
8.806006e+00   3.666737e+02   -1.146196e+03	2.911758e+04   2.572805e+05   -9.664957e+03   -3.946718e+03
8.845559e+00   3.494957e+02   -1.142041e+03	2.906703e+04   2.579841e+05   -9.789013e+03   -3.810986e+03
8.885111e+00   3.501676e+02   -1.139267e+03	2.900829e+04   2.586111e+05   -9.945316e+03   -3.832223e+03
8.924663e+00   3.498510e+02   -1.142171e+03	2.898565e+04   2.595587e+05   -1.009297e+04   -3.843777e+03
8.964215e+00   3.410989e+02   -1.142985e+03	2.894825e+04   2.603703e+05   -1.030242e+04   -3.787491e+03
9.003767e+00   3.410043e+02   -1.137234e+03	2.890865e+04   2.611577e+05   -1.046745e+04   -3.809770e+03
9.043319e+00   3.500265e+02   -1.135756e+03	2.885027e+04   2.617728e+05   -1.063281e+04   -3.901563e+03
9.082871e+00   3.429866e+02   -1.135472e+03	2.881579e+04   2.626006e+05   -1.076869e+04   -3.861970e+03
9.122424e+00   3.314566e+02   -1.132284e+03	2.880257e+04   2.636204e+05   -1.090864e+04   -3.776932e+03
9.161976e+00   3.156717e+02   -1.125916e+03	2.874739e+04   2.642514e+05   -1.107194e+04   -3.645040e+03
9.201528e+00   3.233406e+02   -1.131744e+03	2.870430e+04   2.649951e+05   -1.125108e+04   -3.725308e+03
9.241080e+00   3.244259e+02   -1.130024e+03	2.867519e+04   2.658610e+05   -1.139421e+04   -3.765356e+03
9.280632e+00   3.334483e+02   -1.127667e+03	2.862261e+04   2.665070e+05   -1.152604e+04   -3.857620e+03
9.320184e+00   3.274967e+02   -1.121977e+03	2.857065e+04   2.671528e+05   -1.174411e+04   -3.827602e+03
9.359736e+00   3.076987e+02   -1.120049e+03	2.855508e+04   2.681372e+05   -1.187616e+04   -3.659577e+03
9.399288e+00   3.132282e+02   -1.121018e+03	2.847448e+04   2.685101e+05   -1.197980e+04   -3.728979e+03
9.438841e+00   2.995981e+02   -1.112016e+03	2.846505e+04   2.695434e+05   -1.219863e+04   -3.608938e+03
9.478393e+00   2.973504e+02   -1.116338e+03	2.845442e+04   2.705715e+05   -1.237943e+04   -3.617921e+03
9.517945e+00   3.120927e+02   -1.116721e+03	2.839395e+04   2.711234e+05   -1.255460e+04   -3.772985e+03
9.557497e+00   2.887786e+02   -1.107452e+03	2.836845e+04   2.719974e+05   -1.270873e+04   -3.574233e+03
9.597049e+00   2.772224e+02   -1.101784e+03	2.829456e+04   2.724081e+05   -1.284618e+04   -3.471678e+03
9.636601e+00   2.697179e+02   -1.103944e+03	2.827111e+04   2.733041e+05   -1.304403e+04   -3.415533e+03
9.676153e+00   2.845384e+02   -1.109774e+03	2.824138e+04   2.741383e+05   -1.319575e+04   -3.573214e+03
9.715705e+00   3.003000e+02   -1.106528e+03	2.820533e+04   2.749037e+05   -1.328218e+04   -3.734504e+03
9.755258e+00   2.985532e+02   -1.105954e+03	2.817594e+04   2.757324e+05   -1.346204e+04   -3.740032e+03
9.794810e+00   2.831000e+02   -1.106270e+03	2.812701e+04   2.763693e+05   -1.362012e+04   -3.595336e+03
9.834362e+00   2.717481e+02   -1.102240e+03	2.807912e+04   2.770096e+05   -1.376911e+04   -3.511110e+03
9.873914e+00   2.648386e+02   -1.088505e+03	2.802841e+04   2.776127e+05   -1.396646e+04   -3.462996e+03
9.913466e+00   2.602247e+02   -1.093762e+03	2.797589e+04   2.782054e+05   -1.414041e+04   -3.430367e+03
9.953018e+00   2.593150e+02   -1.091331e+03	2.796439e+04   2.791961e+05   -1.429156e+04   -3.435931e+03
9.992570e+00   2.425421e+02   -1.087201e+03	2.792109e+04   2.798682e+05   -1.444557e+04   -3.289142e+03
1.003212e+01   2.352807e+02   -1.083028e+03	2.787349e+04   2.804935e+05   -1.456823e+04   -3.236031e+03
1.007167e+01   2.365320e+02   -1.078676e+03	2.780201e+04   2.808750e+05   -1.478141e+04   -3.261307e+03
1.011123e+01   2.545496e+02   -1.086781e+03	2.777121e+04   2.816675e+05   -1.494537e+04   -3.446959e+03
1.015078e+01   2.656467e+02   -1.079176e+03	2.772392e+04   2.822818e+05   -1.501594e+04   -3.570698e+03
1.019033e+01   2.623345e+02   -1.091483e+03	2.772329e+04   2.833808e+05   -1.521885e+04   -3.554683e+03
1.022988e+01   2.456670e+02   -1.081649e+03	2.766923e+04   2.839191e+05   -1.538338e+04   -3.410445e+03
1.026944e+01   2.552334e+02   -1.079042e+03	2.764575e+04   2.847712e+05   -1.549809e+04   -3.504517e+03
1.030899e+01   2.415424e+02   -1.071726e+03	2.760534e+04   2.854456e+05   -1.568767e+04   -3.386879e+03
1.034854e+01   2.513689e+02   -1.081106e+03	2.751488e+04   2.856072e+05   -1.579896e+04   -3.507600e+03
1.038809e+01   2.442637e+02   -1.073152e+03	2.749205e+04   2.864543e+05   -1.597419e+04   -3.449951e+03
1.042764e+01   2.194238e+02   -1.066393e+03	2.747496e+04   2.873605e+05   -1.611936e+04   -3.205186e+03
1.046720e+01   2.242130e+02   -1.066168e+03	2.745086e+04   2.881958e+05   -1.623463e+04   -3.267810e+03
1.050675e+01   2.169414e+02   -1.065591e+03	2.741952e+04   2.889522e+05   -1.645671e+04   -3.202196e+03
1.054630e+01   2.083503e+02   -1.062760e+03	2.736356e+04   2.894459e+05   -1.660889e+04   -3.128387e+03
1.058585e+01   2.181078e+02   -1.062697e+03	2.730942e+04   2.899568e+05   -1.672910e+04   -3.248546e+03
1.062540e+01   2.249737e+02   -1.064346e+03	2.729392e+04   2.908729e+05   -1.692970e+04   -3.327677e+03
1.066496e+01   2.330287e+02   -1.066295e+03	2.724580e+04   2.914409e+05   -1.707881e+04   -3.425852e+03
1.070451e+01   2.335906e+02   -1.062986e+03	2.716228e+04   2.916235e+05   -1.721590e+04   -3.447097e+03
1.074406e+01   2.231479e+02   -1.057012e+03	2.710223e+04   2.920504e+05   -1.735824e+04   -3.347407e+03
1.078361e+01   2.095899e+02   -1.050576e+03	2.707245e+04   2.927987e+05   -1.749331e+04   -3.216941e+03
1.082316e+01   2.128633e+02   -1.053022e+03	2.706250e+04   2.937633e+05   -1.768310e+04   -3.268907e+03
1.086272e+01   2.157211e+02   -1.052860e+03	2.699981e+04   2.941534e+05   -1.781914e+04   -3.306333e+03
1.090227e+01   1.877670e+02   -1.048852e+03	2.697404e+04   2.949395e+05   -1.797265e+04   -3.022024e+03
1.094182e+01   1.877366e+02   -1.045110e+03	2.691100e+04   2.953154e+05   -1.807128e+04   -3.029562e+03
1.098137e+01   1.882271e+02   -1.046682e+03	2.687316e+04   2.959657e+05   -1.825722e+04   -3.053686e+03
1.102093e+01   1.947899e+02   -1.039449e+03	2.683419e+04   2.965954e+05   -1.844052e+04   -3.131247e+03
1.106048e+01   2.107500e+02   -1.047600e+03	2.678813e+04   2.971529e+05   -1.858668e+04   -3.325132e+03
1.110003e+01   2.141067e+02   -1.044771e+03	2.675150e+04   2.978053e+05   -1.875075e+04   -3.370716e+03
1.113958e+01   2.034327e+02   -1.038038e+03	2.672959e+04   2.986157e+05   -1.886551e+04   -3.267544e+03
1.117913e+01   1.871899e+02   -1.037159e+03	2.669631e+04   2.993011e+05   -1.903789e+04   -3.103054e+03
1.121869e+01   1.854723e+02   -1.035365e+03	2.665037e+04   2.998412e+05   -1.917908e+04   -3.082913e+03
1.125824e+01   1.775937e+02   -1.034633e+03	2.658953e+04   3.002111e+05   -1.933361e+04   -3.008510e+03
1.129779e+01   1.802517e+02   -1.036948e+03	2.653650e+04   3.006665e+05   -1.951607e+04   -3.066639e+03
1.133734e+01   1.863387e+02   -1.028388e+03	2.651069e+04   3.014187e+05   -1.963349e+04   -3.132717e+03
1.137689e+01   1.698972e+02   -1.026078e+03	2.645774e+04   3.018645e+05   -1.982333e+04   -2.970337e+03
1.141645e+01   1.668947e+02   -1.020249e+03	2.640278e+04   3.022805e+05   -1.993316e+04   -2.941452e+03
1.145600e+01   1.690283e+02   -1.023222e+03	2.634432e+04   3.026577e+05   -2.006848e+04   -2.979608e+03
1.149555e+01   1.917050e+02   -1.028554e+03	2.630684e+04   3.032730e+05   -2.023958e+04   -3.240519e+03
1.153510e+01   1.891972e+02   -1.025567e+03	2.627414e+04   3.039348e+05   -2.040261e+04   -3.227712e+03
1.157466e+01   1.865639e+02   -1.023480e+03	2.621488e+04   3.042876e+05   -2.051743e+04   -3.204508e+03
1.161421e+01   1.744715e+02   -1.018633e+03	2.616406e+04   3.047330e+05   -2.065922e+04   -3.087407e+03
1.165376e+01   1.760889e+02   -1.016112e+03	2.610379e+04   3.050639e+05   -2.077046e+04   -3.111947e+03
1.169331e+01   1.761930e+02   -1.016371e+03	2.608113e+04   3.058326e+05   -2.092308e+04   -3.120787e+03
1.173286e+01   1.855816e+02   -1.014163e+03	2.604629e+04   3.064545e+05   -2.108389e+04   -3.243390e+03
1.177242e+01   1.866573e+02   -1.017525e+03	2.603713e+04   3.073797e+05   -2.124032e+04   -3.267830e+03
1.181197e+01   1.664319e+02   -1.009140e+03	2.599357e+04   3.078909e+05   -2.139618e+04   -3.049226e+03
1.185152e+01   1.735049e+02   -1.014986e+03	2.594008e+04   3.082892e+05   -2.154358e+04   -3.144136e+03
1.189107e+01   1.764451e+02   -1.008127e+03	2.590044e+04   3.088406e+05   -2.173926e+04   -3.187461e+03
1.193062e+01   1.707236e+02   -1.000858e+03	2.579880e+04   3.086497e+05   -2.185838e+04   -3.128631e+03
1.197018e+01   1.738912e+02   -1.003942e+03	2.576648e+04   3.092854e+05   -2.198865e+04   -3.176187e+03
1.200973e+01   1.755304e+02   -1.003234e+03	2.571800e+04   3.097219e+05   -2.208003e+04   -3.206169e+03
1.204928e+01   1.689547e+02   -1.001752e+03	2.568202e+04   3.103067e+05   -2.226812e+04   -3.145909e+03
1.208883e+01   1.631162e+02   -9.961878e+02	2.561709e+04   3.105339e+05   -2.238245e+04   -3.076455e+03
1.212839e+01   1.642850e+02   -9.923353e+02	2.555544e+04   3.107978e+05   -2.251007e+04   -3.102683e+03
1.216794e+01   1.623909e+02   -9.888154e+02	2.551283e+04   3.112892e+05   -2.263001e+04   -3.100638e+03
1.220749e+01   1.596782e+02   -9.927661e+02	2.546785e+04   3.117530e+05   -2.280869e+04   -3.080243e+03
1.224704e+01   1.610447e+02   -9.885943e+02	2.544043e+04   3.124218e+05   -2.293166e+04   -3.094400e+03
1.228659e+01   1.610165e+02   -9.912150e+02	2.543058e+04   3.133096e+05   -2.312747e+04   -3.109965e+03
1.232615e+01   1.579903e+02   -9.869018e+02	2.537294e+04   3.136030e+05   -2.327496e+04   -3.084120e+03
1.236570e+01   1.560892e+02   -9.878516e+02	2.531355e+04   3.138741e+05   -2.340372e+04   -3.073618e+03
1.240525e+01   1.428759e+02   -9.819649e+02	2.529511e+04   3.146430e+05   -2.352456e+04   -2.918476e+03
1.244480e+01   1.519606e+02   -9.790699e+02	2.524678e+04   3.150406e+05   -2.363138e+04   -3.034230e+03
1.248435e+01   1.530358e+02   -9.808871e+02	2.517738e+04   3.151755e+05   -2.374762e+04   -3.063472e+03
1.252391e+01   1.526467e+02   -9.856484e+02	2.513216e+04   3.156093e+05   -2.390070e+04   -3.079670e+03
1.256346e+01   1.589609e+02   -9.790354e+02	2.510695e+04   3.162821e+05   -2.401274e+04   -3.157977e+03
1.260301e+01   1.464169e+02   -9.721245e+02	2.504922e+04   3.165443e+05   -2.414130e+04   -3.016291e+03
1.264256e+01   1.326154e+02   -9.685188e+02	2.503307e+04   3.173289e+05   -2.432602e+04   -2.858399e+03
1.268211e+01   1.435521e+02   -9.701253e+02	2.493554e+04   3.170847e+05   -2.444568e+04   -2.996341e+03
1.272167e+01   1.591820e+02   -9.679770e+02	2.486101e+04   3.171219e+05   -2.455116e+04   -3.195589e+03
1.276122e+01   1.463892e+02   -9.694264e+02	2.480575e+04   3.174029e+05   -2.471005e+04   -3.054699e+03
1.280077e+01   1.495027e+02   -9.603368e+02	2.477069e+04   3.179283e+05   -2.481292e+04   -3.094099e+03
1.284032e+01   1.414809e+02   -9.628597e+02	2.472000e+04   3.182608e+05   -2.494221e+04   -3.007014e+03
1.287988e+01   1.306845e+02   -9.580897e+02	2.466999e+04   3.185927e+05   -2.507794e+04   -2.879826e+03
1.291943e+01   1.409069e+02   -9.537625e+02	2.461760e+04   3.188881e+05   -2.517867e+04   -3.018588e+03
1.295898e+01   1.414500e+02   -9.559375e+02	2.459793e+04   3.196097e+05   -2.536422e+04   -3.033017e+03
1.299853e+01   1.384191e+02   -9.542832e+02	2.455319e+04   3.200010e+05   -2.549421e+04   -3.007187e+03
1.303808e+01   1.332947e+02   -9.482157e+02	2.450851e+04   3.203859e+05   -2.563328e+04   -2.948404e+03
1.307764e+01   1.357733e+02   -9.508952e+02	2.448980e+04   3.211137e+05   -2.577028e+04   -2.989943e+03
1.311719e+01   1.437700e+02   -9.524756e+02	2.444194e+04   3.214559e+05   -2.587340e+04   -3.105777e+03
1.315674e+01   1.511061e+02   -9.499652e+02	2.436460e+04   3.214042e+05   -2.596096e+04   -3.215974e+03
1.319629e+01   1.585239e+02   -9.501211e+02	2.432858e+04   3.218935e+05   -2.609111e+04   -3.320178e+03
1.323584e+01   1.405562e+02   -9.468491e+02	2.426409e+04   3.220007e+05   -2.621594e+04   -3.090108e+03