TITLE = "Grid: prim/mr_v4.2_no_tail_wing_v2_wing_set_0.17_targ_coarse_lvl_2.grid, Pointdata: sol/sol.pval.unsteady_i=2900_t=5.80000000e-01" 
VARIABLES = "Y", fx, fy, fz, mx, my, mz
#
# Force distributions of the components 
#
ZONE T="DISTR      Wing", F=POINT 
1.923936e+00   0.000000e+00   0.000000e+00	0.000000e+00   0.000000e+00   0.000000e+00   0.000000e+00
1.963488e+00   2.832509e+03   -2.793443e+02	3.363829e+04   6.678888e+04   9.207359e+03   -6.692074e+03
2.003041e+00   2.773148e+03   -2.545784e+02	3.373647e+04   6.831819e+04   8.920118e+03   -6.758614e+03
2.042593e+00   2.660537e+03   -2.422337e+02	3.380575e+04   6.979420e+04   8.781165e+03   -6.729536e+03
2.082145e+00   2.551025e+03   -2.325023e+02	3.394290e+04   7.141603e+04   8.681261e+03   -6.682509e+03
2.121697e+00   2.451808e+03   -2.334212e+02	3.402121e+04   7.292599e+04   8.568477e+03   -6.630153e+03
2.161249e+00   2.393896e+03   -2.321569e+02	3.410695e+04   7.445938e+04   8.432304e+03   -6.646284e+03
2.200801e+00   2.356346e+03   -2.367537e+02	3.413435e+04   7.586943e+04   8.174557e+03   -6.676855e+03
2.240353e+00   2.255910e+03   -2.429370e+02	3.416294e+04   7.728451e+04   8.013434e+03   -6.593468e+03
2.279905e+00   2.194345e+03   -2.355360e+02	3.417288e+04   7.865820e+04   7.895295e+03   -6.575317e+03
2.319458e+00   2.116736e+03   -2.307067e+02	3.420113e+04   8.007539e+04   7.787493e+03   -6.548199e+03
2.359010e+00   2.102544e+03   -2.403880e+02	3.419563e+04   8.141642e+04   7.599916e+03   -6.591275e+03
2.398562e+00   2.071137e+03   -2.491109e+02	3.424242e+04   8.288029e+04   7.468966e+03   -6.599759e+03
2.438114e+00   2.089971e+03   -2.549117e+02	3.422140e+04   8.418329e+04   7.336162e+03   -6.724818e+03
2.477666e+00   2.023730e+03   -2.536269e+02	3.417425e+04   8.542092e+04   7.207072e+03   -6.677901e+03
2.517218e+00   1.995436e+03   -2.689891e+02	3.415907e+04   8.673475e+04   7.107134e+03   -6.656306e+03
2.556770e+00   1.905763e+03   -2.618637e+02	3.416385e+04   8.809654e+04   7.118339e+03   -6.548996e+03
2.596322e+00   1.850151e+03   -2.715303e+02	3.416542e+04   8.945055e+04   7.044054e+03   -6.500669e+03
2.635875e+00   1.813705e+03   -2.710174e+02	3.413325e+04   9.071689e+04   6.972946e+03   -6.484603e+03
2.675427e+00   1.808150e+03   -2.939517e+02	3.410929e+04   9.200324e+04   6.876506e+03   -6.514103e+03
2.714979e+00   1.769452e+03   -3.020975e+02	3.407486e+04   9.325906e+04   6.798860e+03   -6.461196e+03
2.754531e+00   1.745199e+03   -3.085200e+02	3.402596e+04   9.447188e+04   6.643972e+03   -6.471235e+03
2.794083e+00   1.721906e+03   -3.115898e+02	3.398508e+04   9.570078e+04   6.561296e+03   -6.484182e+03
2.833635e+00   1.726668e+03   -3.241168e+02	3.397529e+04   9.701722e+04   6.573909e+03   -6.529790e+03
2.873187e+00   1.683136e+03   -3.379880e+02	3.391941e+04   9.820159e+04   6.415442e+03   -6.463875e+03
2.912739e+00   1.652603e+03   -3.421536e+02	3.386042e+04   9.936989e+04   6.422288e+03   -6.429502e+03
2.952292e+00   1.614453e+03   -3.495949e+02	3.381550e+04   1.005757e+05   6.374916e+03   -6.390234e+03
2.991844e+00   1.557345e+03   -3.510062e+02	3.377832e+04   1.018011e+05   6.255560e+03   -6.296481e+03
3.031396e+00   1.555429e+03   -3.595052e+02	3.367508e+04   1.028237e+05   6.079755e+03   -6.332014e+03
3.070948e+00   1.527148e+03   -3.709724e+02	3.364205e+04   1.040539e+05   6.087762e+03   -6.296274e+03
3.110500e+00   1.516404e+03   -3.811642e+02	3.363865e+04   1.053733e+05   6.063904e+03   -6.311661e+03
3.150052e+00   1.467367e+03   -3.945220e+02	3.359177e+04   1.065555e+05   6.035240e+03   -6.186249e+03
3.189604e+00   1.454773e+03   -4.083388e+02	3.352688e+04   1.076794e+05   5.953594e+03   -6.184125e+03
3.229156e+00   1.455474e+03   -4.163399e+02	3.348581e+04   1.088709e+05   5.876976e+03   -6.241110e+03
3.268709e+00   1.446028e+03   -4.286810e+02	3.344217e+04   1.100521e+05   5.800192e+03   -6.247252e+03
3.308261e+00   1.397407e+03   -4.322444e+02	3.343140e+04   1.113389e+05   5.813488e+03   -6.138720e+03
3.347813e+00   1.372633e+03   -4.384500e+02	3.334607e+04   1.123750e+05   5.673161e+03   -6.104701e+03
3.387365e+00   1.353819e+03   -4.613650e+02	3.329784e+04   1.135320e+05   5.639659e+03   -6.068330e+03
3.426917e+00   1.349297e+03   -4.631798e+02	3.329848e+04   1.148502e+05   5.595464e+03   -6.113154e+03
3.466469e+00   1.330120e+03   -4.751309e+02	3.323852e+04   1.159589e+05   5.580736e+03   -6.057036e+03
3.506021e+00   1.304463e+03   -4.860004e+02	3.317525e+04   1.170529e+05   5.556958e+03   -6.009367e+03
3.545574e+00   1.298341e+03   -4.941940e+02	3.313773e+04   1.182311e+05   5.474940e+03   -6.031665e+03
3.585126e+00   1.296440e+03   -5.134091e+02	3.309861e+04   1.194030e+05   5.443199e+03   -6.041252e+03
3.624678e+00   1.267483e+03   -5.243436e+02	3.302633e+04   1.204501e+05   5.365727e+03   -5.965781e+03
3.664230e+00   1.244804e+03   -5.297735e+02	3.296437e+04   1.215285e+05   5.214440e+03   -5.924321e+03
3.703782e+00   1.226795e+03   -5.411194e+02	3.291927e+04   1.226667e+05   5.185757e+03   -5.908116e+03
3.743334e+00   1.216781e+03   -5.440249e+02	3.287850e+04   1.238146e+05   5.120238e+03   -5.904228e+03
3.782886e+00   1.164210e+03   -5.552683e+02	3.281426e+04   1.248729e+05   5.109099e+03   -5.745945e+03
3.822438e+00   1.164954e+03   -5.670754e+02	3.279549e+04   1.260989e+05   5.026574e+03   -5.775773e+03
3.861991e+00   1.141644e+03   -5.773313e+02	3.274515e+04   1.272017e+05   5.014701e+03   -5.709955e+03
3.901543e+00   1.130087e+03   -5.858025e+02	3.267439e+04   1.282223e+05   4.873696e+03   -5.706737e+03
3.941095e+00   1.146332e+03   -5.965488e+02	3.262231e+04   1.293102e+05   4.830185e+03   -5.797299e+03
3.980647e+00   1.124454e+03   -6.023689e+02	3.256025e+04   1.303529e+05   4.745868e+03   -5.737392e+03
4.020199e+00   1.146780e+03   -6.165296e+02	3.252130e+04   1.314848e+05   4.651831e+03   -5.852557e+03
4.059751e+00   1.114403e+03   -6.284077e+02	3.248073e+04   1.326089e+05   4.556217e+03   -5.748875e+03
4.099303e+00   1.108238e+03   -6.417581e+02	3.242518e+04   1.336666e+05   4.432802e+03   -5.746251e+03
4.138855e+00   1.093352e+03   -6.451576e+02	3.238237e+04   1.347725e+05   4.410510e+03   -5.724034e+03
4.178408e+00   1.094283e+03   -6.528150e+02	3.231157e+04   1.357565e+05   4.295499e+03   -5.766083e+03
4.217960e+00   1.073052e+03   -6.565131e+02	3.223420e+04   1.367079e+05   4.214753e+03   -5.699160e+03
4.257512e+00   1.066182e+03   -6.769627e+02	3.220186e+04   1.378484e+05   4.145701e+03   -5.685738e+03
4.297064e+00   1.041743e+03   -6.831558e+02	3.214242e+04   1.388683e+05   4.032459e+03   -5.627209e+03
4.336616e+00   1.008135e+03   -6.903931e+02	3.210659e+04   1.399829e+05   3.960520e+03   -5.520177e+03
4.376168e+00   1.005374e+03   -6.995370e+02	3.205081e+04   1.410101e+05   3.866848e+03   -5.533657e+03
4.415720e+00   9.834970e+02   -7.094088e+02	3.196571e+04   1.419034e+05   3.816468e+03   -5.455487e+03
4.455272e+00   9.705037e+02   -7.210723e+02	3.189411e+04   1.428496e+05   3.792854e+03   -5.420622e+03
4.494825e+00   9.803328e+02   -7.272601e+02	3.185914e+04   1.439538e+05   3.750982e+03   -5.478278e+03
4.534377e+00   9.436725e+02   -7.360315e+02	3.183153e+04   1.450905e+05   3.689807e+03   -5.356235e+03
4.573929e+00   9.355700e+02   -7.385226e+02	3.178309e+04   1.461271e+05   3.571241e+03   -5.339370e+03
4.613481e+00   9.285228e+02   -7.486582e+02	3.176735e+04   1.473122e+05   3.585659e+03   -5.346051e+03
4.653033e+00   9.311593e+02   -7.595651e+02	3.168297e+04   1.481784e+05   3.525177e+03   -5.369143e+03
4.692585e+00   9.065616e+02   -7.555314e+02	3.159387e+04   1.490123e+05   3.349359e+03   -5.312527e+03
4.732137e+00   9.369743e+02   -7.678150e+02	3.155120e+04   1.500612e+05   3.316821e+03   -5.447089e+03
4.771689e+00   9.106506e+02   -7.778264e+02	3.147059e+04   1.509264e+05   3.169881e+03   -5.357689e+03
4.811242e+00   8.897072e+02   -7.851310e+02	3.142523e+04   1.519533e+05   3.031428e+03   -5.290405e+03
4.850794e+00   9.085718e+02   -7.979890e+02	3.136405e+04   1.529017e+05   2.943299e+03   -5.397326e+03
4.890346e+00   8.849341e+02   -7.987902e+02	3.131309e+04   1.538932e+05   2.897888e+03   -5.306402e+03
4.929898e+00   8.888880e+02   -8.141221e+02	3.128072e+04   1.549748e+05   2.901359e+03   -5.332022e+03
4.969450e+00   8.805793e+02   -8.149804e+02	3.120592e+04   1.558390e+05   2.815705e+03   -5.319924e+03
5.009002e+00   8.679487e+02   -8.206353e+02	3.115712e+04   1.568313e+05   2.625529e+03   -5.295330e+03
5.048554e+00   8.515812e+02   -8.230108e+02	3.111170e+04   1.578331e+05   2.493532e+03   -5.251032e+03
5.088106e+00   8.565631e+02   -8.265270e+02	3.107763e+04   1.588907e+05   2.442903e+03   -5.304494e+03
5.127659e+00   8.456970e+02   -8.330113e+02	3.101024e+04   1.597757e+05   2.390092e+03   -5.269208e+03
5.167211e+00   8.437452e+02   -8.475178e+02	3.096414e+04   1.607663e+05   2.301782e+03   -5.274764e+03
5.206763e+00   8.313353e+02   -8.498600e+02	3.091904e+04   1.617564e+05   2.265457e+03   -5.221716e+03
5.246315e+00   8.192879e+02   -8.580611e+02	3.086013e+04   1.626720e+05   2.116873e+03   -5.198769e+03
5.285867e+00   8.099196e+02   -8.616884e+02	3.080033e+04   1.635768e+05   2.010077e+03   -5.176796e+03
5.325419e+00   8.086128e+02   -8.643202e+02	3.072986e+04   1.644193e+05   1.978615e+03   -5.188177e+03
5.364971e+00   8.195203e+02   -8.638419e+02	3.067600e+04   1.653449e+05   1.950865e+03   -5.270100e+03
5.404524e+00   7.974697e+02   -8.730232e+02	3.059771e+04   1.661380e+05   1.767998e+03   -5.179666e+03
5.444076e+00   7.992333e+02   -8.787564e+02	3.052627e+04   1.669603e+05   1.596383e+03   -5.207647e+03
5.483628e+00   8.223868e+02   -8.861878e+02	3.047116e+04   1.678666e+05   1.544509e+03   -5.341530e+03
5.523180e+00   8.151974e+02   -8.883955e+02	3.044506e+04   1.689272e+05   1.463377e+03   -5.343426e+03
5.562732e+00   7.986538e+02   -8.886835e+02	3.037502e+04   1.697409e+05   1.347813e+03   -5.289455e+03
5.602284e+00   7.822739e+02   -8.921710e+02	3.030692e+04   1.705616e+05   1.270377e+03   -5.217720e+03
5.641836e+00   7.768802e+02   -8.907729e+02	3.025352e+04   1.714583e+05   1.125887e+03   -5.216645e+03
5.681388e+00   7.710887e+02   -8.927346e+02	3.018844e+04   1.722856e+05   1.045232e+03   -5.219505e+03
5.720941e+00   7.595724e+02   -8.969625e+02	3.012454e+04   1.731156e+05   9.533635e+02   -5.179580e+03
5.760493e+00   7.644105e+02   -9.017633e+02	3.007421e+04   1.740170e+05   8.935255e+02   -5.219440e+03
5.800045e+00   7.496271e+02   -9.014695e+02	3.004168e+04   1.750171e+05   7.613484e+02   -5.165404e+03
5.839597e+00   7.546713e+02   -9.032711e+02	2.995298e+04   1.756869e+05   6.659455e+02   -5.209501e+03
5.879149e+00   7.558901e+02   -9.044308e+02	2.989326e+04   1.765210e+05   6.226382e+02   -5.249611e+03
5.918701e+00   7.812301e+02   -9.127243e+02	2.985432e+04   1.774738e+05   5.660597e+02   -5.411573e+03
5.958253e+00   7.502325e+02   -9.008260e+02	2.982086e+04   1.784519e+05   5.317755e+02   -5.272180e+03
5.997805e+00   7.387037e+02   -9.047748e+02	2.976359e+04   1.792883e+05   3.798929e+02   -5.234209e+03
6.037358e+00   7.416547e+02   -9.118351e+02	2.970842e+04   1.801342e+05   2.485933e+02   -5.267683e+03
6.076910e+00   7.571338e+02   -9.071240e+02	2.962270e+04   1.807863e+05   5.902831e+01   -5.388679e+03
6.116462e+00   7.672979e+02   -9.050423e+02	2.955996e+04   1.815734e+05   -5.429980e+01   -5.480615e+03
6.156014e+00   7.421875e+02   -9.044725e+02	2.949466e+04   1.823400e+05   -2.040766e+02   -5.376236e+03
6.195566e+00   7.448643e+02   -9.047730e+02	2.946020e+04   1.832926e+05   -3.151316e+02   -5.403932e+03
6.235118e+00   7.597213e+02   -9.030289e+02	2.939885e+04   1.840735e+05   -3.746770e+02   -5.527890e+03
6.274670e+00   7.703021e+02   -9.486030e+02	2.934347e+04   1.848991e+05   -4.697140e+02   -5.555983e+03
6.314222e+00   7.514737e+02   -1.125643e+03	2.932067e+04   1.859667e+05   -5.814922e+02   -5.297839e+03
6.353775e+00   7.394606e+02   -1.167135e+03	2.925672e+04   1.867311e+05   -6.960606e+02   -5.192592e+03
6.393327e+00   7.187358e+02   -1.165813e+03	2.919708e+04   1.875084e+05   -8.919024e+02   -5.101537e+03
6.432879e+00   7.111542e+02   -1.165305e+03	2.917854e+04   1.885427e+05   -1.007571e+03   -5.078480e+03
6.472431e+00   7.098615e+02   -1.164728e+03	2.914770e+04   1.894977e+05   -1.156576e+03   -5.098482e+03
6.511983e+00   6.901547e+02   -1.163108e+03	2.914905e+04   1.906600e+05   -1.344253e+03   -5.001252e+03
6.551535e+00   6.809266e+02   -1.153699e+03	2.911313e+04   1.915740e+05   -1.490423e+03   -4.971955e+03
6.591087e+00   6.701242e+02   -1.160934e+03	2.906169e+04   1.923907e+05   -1.722702e+03   -4.928458e+03
6.630639e+00   6.630758e+02   -1.152343e+03	2.904424e+04   1.934213e+05   -1.840133e+03   -4.911968e+03
6.670192e+00   6.521909e+02   -1.150242e+03	2.903100e+04   1.944817e+05   -1.956694e+03   -4.881085e+03
6.709744e+00   6.444639e+02   -1.151818e+03	2.897416e+04   1.952497e+05   -2.070465e+03   -4.848199e+03
6.749296e+00   6.201875e+02   -1.144104e+03	2.895129e+04   1.962394e+05   -2.320923e+03   -4.726102e+03
6.788848e+00   6.148874e+02   -1.142120e+03	2.893816e+04   1.972955e+05   -2.490267e+03   -4.730254e+03
6.828400e+00   6.297799e+02   -1.145913e+03	2.889043e+04   1.981157e+05   -2.601870e+03   -4.839673e+03
6.867952e+00   5.961267e+02   -1.135236e+03	2.886985e+04   1.991139e+05   -2.794803e+03   -4.650113e+03
6.907504e+00   6.003159e+02   -1.134478e+03	2.884818e+04   2.001057e+05   -2.903306e+03   -4.704200e+03
6.947056e+00   5.906800e+02   -1.136600e+03	2.881138e+04   2.009928e+05   -3.092692e+03   -4.665763e+03
6.986609e+00   5.850845e+02   -1.135801e+03	2.879750e+04   2.020354e+05   -3.154061e+03   -4.643055e+03
7.026161e+00   5.870672e+02   -1.135954e+03	2.877350e+04   2.030065e+05   -3.261154e+03   -4.684857e+03
7.065713e+00   5.733727e+02   -1.129895e+03	2.875546e+04   2.040153e+05   -3.446296e+03   -4.620402e+03
7.105265e+00   5.662524e+02   -1.129565e+03	2.870433e+04   2.047897e+05   -3.641368e+03   -4.589853e+03
7.144817e+00   5.616750e+02   -1.130248e+03	2.867000e+04   2.056815e+05   -3.790895e+03   -4.586348e+03
7.184369e+00   5.422199e+02   -1.126530e+03	2.869591e+04   2.069996e+05   -3.955512e+03   -4.480265e+03
7.223921e+00   5.489192e+02   -1.129679e+03	2.864861e+04   2.077957e+05   -4.143299e+03   -4.552126e+03
7.263474e+00   5.408476e+02   -1.126958e+03	2.862774e+04   2.087755e+05   -4.246013e+03   -4.515127e+03
7.303026e+00   5.338306e+02   -1.120469e+03	2.857742e+04   2.095383e+05   -4.438774e+03   -4.492309e+03
7.342578e+00   5.315739e+02   -1.119217e+03	2.854516e+04   2.104324e+05   -4.613027e+03   -4.503825e+03
7.382130e+00   5.241068e+02   -1.117102e+03	2.851768e+04   2.113584e+05   -4.788532e+03   -4.469853e+03
7.421682e+00   5.117209e+02   -1.118760e+03	2.848652e+04   2.122569e+05   -4.962331e+03   -4.406898e+03
7.461234e+00   5.117159e+02   -1.119527e+03	2.846917e+04   2.132548e+05   -5.121731e+03   -4.424966e+03
7.500786e+00   5.161359e+02   -1.112662e+03	2.843957e+04   2.141553e+05   -5.304931e+03   -4.489577e+03
7.540338e+00   4.955891e+02   -1.113437e+03	2.841806e+04   2.151206e+05   -5.515632e+03   -4.365875e+03
7.579891e+00   5.025654e+02   -1.113786e+03	2.838442e+04   2.159900e+05   -5.617976e+03   -4.437715e+03
7.619443e+00   4.937487e+02   -1.112585e+03	2.836052e+04   2.169300e+05   -5.762532e+03   -4.406216e+03
7.658995e+00   4.735480e+02   -1.103263e+03	2.834253e+04   2.179109e+05   -5.903910e+03   -4.265064e+03
7.698547e+00   4.753625e+02   -1.105967e+03	2.829551e+04   2.186719e+05   -6.093038e+03   -4.305541e+03
7.738099e+00   4.635450e+02   -1.102116e+03	2.826723e+04   2.195721e+05   -6.213296e+03   -4.238796e+03
7.777651e+00   4.693221e+02   -1.103270e+03	2.823753e+04   2.204593e+05   -6.349704e+03   -4.301483e+03
7.817203e+00   4.819257e+02   -1.107685e+03	2.816081e+04   2.209786e+05   -6.564850e+03   -4.416855e+03
7.856755e+00   4.782448e+02   -1.100012e+03	2.816017e+04   2.220851e+05   -6.738351e+03   -4.413784e+03
7.896308e+00   4.602294e+02   -1.103594e+03	2.815251e+04   2.231407e+05   -6.885494e+03   -4.298666e+03
7.935860e+00   4.617163e+02   -1.097197e+03	2.811729e+04   2.239725e+05   -7.115508e+03   -4.335064e+03
7.975412e+00   4.488626e+02   -1.097458e+03	2.808229e+04   2.248059e+05   -7.272015e+03   -4.251803e+03
8.014964e+00   4.358526e+02   -1.091679e+03	2.807509e+04   2.258582e+05   -7.437363e+03   -4.173692e+03
8.054516e+00   4.567249e+02   -1.099878e+03	2.805642e+04   2.268215e+05   -7.633016e+03   -4.360491e+03
8.094068e+00   4.618704e+02   -1.096844e+03	2.804821e+04   2.278627e+05   -7.818884e+03   -4.425472e+03
8.133620e+00   4.577405e+02   -1.093385e+03	2.799590e+04   2.285466e+05   -7.990265e+03   -4.416079e+03
8.173172e+00   4.427360e+02   -1.099522e+03	2.795664e+04   2.293369e+05   -8.095052e+03   -4.315818e+03
8.212725e+00   4.098681e+02   -1.086272e+03	2.792503e+04   2.301779e+05   -8.233096e+03   -4.082831e+03
8.252277e+00   4.101972e+02   -1.079747e+03	2.788715e+04   2.309665e+05   -8.373416e+03   -4.090742e+03
8.291829e+00   4.203933e+02   -1.089701e+03	2.786672e+04   2.319059e+05   -8.523414e+03   -4.196958e+03
8.331381e+00   4.220100e+02   -1.086990e+03	2.783872e+04   2.327748e+05   -8.671976e+03   -4.238083e+03
8.370933e+00   4.127469e+02   -1.078698e+03	2.781693e+04   2.336894e+05   -8.884590e+03   -4.177345e+03
8.410485e+00   4.199210e+02   -1.082712e+03	2.777700e+04   2.344563e+05   -9.014857e+03   -4.256308e+03
8.450037e+00   4.132030e+02   -1.083386e+03	2.773314e+04   2.351857e+05   -9.096642e+03   -4.224039e+03
8.489589e+00   4.247815e+02   -1.085561e+03	2.768595e+04   2.358829e+05   -9.273341e+03   -4.330627e+03
8.529142e+00   4.130593e+02   -1.080410e+03	2.767577e+04   2.368892e+05   -9.440951e+03   -4.251544e+03
8.568694e+00   4.055888e+02   -1.078859e+03	2.766141e+04   2.378615e+05   -9.618606e+03   -4.211433e+03
8.608246e+00   3.969717e+02   -1.075233e+03	2.763271e+04   2.387083e+05   -9.813870e+03   -4.175097e+03
8.647798e+00   3.975888e+02   -1.074540e+03	2.760957e+04   2.395997e+05   -9.963945e+03   -4.187631e+03
8.687350e+00   3.900936e+02   -1.074503e+03	2.757059e+04   2.403546e+05   -1.013408e+04   -4.138971e+03
8.726902e+00   3.805960e+02   -1.071449e+03	2.753913e+04   2.411701e+05   -1.029433e+04   -4.079605e+03
8.766454e+00   3.852107e+02   -1.068688e+03	2.749301e+04   2.418535e+05   -1.044166e+04   -4.145481e+03
8.806006e+00   3.790536e+02   -1.067078e+03	2.748764e+04   2.428937e+05   -1.059509e+04   -4.115031e+03
8.845559e+00   3.638230e+02   -1.063883e+03	2.744844e+04   2.436337e+05   -1.071999e+04   -3.997094e+03
8.885111e+00   3.662963e+02   -1.061358e+03	2.738648e+04   2.441679e+05   -1.086897e+04   -4.033536e+03
8.924663e+00   3.680003e+02   -1.065723e+03	2.738038e+04   2.451998e+05   -1.101964e+04   -4.064172e+03
8.964215e+00   3.598347e+02   -1.066429e+03	2.733792e+04   2.459021e+05   -1.121938e+04   -4.012722e+03
9.003767e+00   3.615384e+02   -1.060849e+03	2.729568e+04   2.466020e+05   -1.137547e+04   -4.050941e+03
9.043319e+00   3.725960e+02   -1.060178e+03	2.724557e+04   2.472284e+05   -1.154208e+04   -4.161670e+03
9.082871e+00   3.665384e+02   -1.060534e+03	2.720609e+04   2.479476e+05   -1.166912e+04   -4.131416e+03
9.122424e+00   3.560117e+02   -1.056872e+03	2.719267e+04   2.489014e+05   -1.180088e+04   -4.055481e+03
9.161976e+00   3.421256e+02   -1.051797e+03	2.714706e+04   2.495570e+05   -1.196398e+04   -3.941715e+03
9.201528e+00   3.514770e+02   -1.058106e+03	2.711130e+04   2.503050e+05   -1.214137e+04   -4.038058e+03
9.241080e+00   3.540695e+02   -1.057171e+03	2.708811e+04   2.511629e+05   -1.228177e+04   -4.092883e+03
9.280632e+00   3.644340e+02   -1.055515e+03	2.703967e+04   2.517847e+05   -1.240855e+04   -4.198138e+03
9.320184e+00   3.604717e+02   -1.050576e+03	2.699772e+04   2.524615e+05   -1.262682e+04   -4.187592e+03
9.359736e+00   3.413619e+02   -1.048228e+03	2.696788e+04   2.532497e+05   -1.274100e+04   -4.025695e+03
9.399288e+00   3.496552e+02   -1.050455e+03	2.690453e+04   2.537225e+05   -1.285197e+04   -4.122354e+03
9.438841e+00   3.369302e+02   -1.041920e+03	2.689989e+04   2.547392e+05   -1.306640e+04   -4.011907e+03
9.478393e+00   3.357536e+02   -1.046693e+03	2.688774e+04   2.556910e+05   -1.323860e+04   -4.031920e+03
9.517945e+00   3.515315e+02   -1.047191e+03	2.682768e+04   2.561848e+05   -1.340523e+04   -4.197915e+03
9.557497e+00   3.302425e+02   -1.038851e+03	2.681191e+04   2.570903e+05   -1.356032e+04   -4.019507e+03
9.597049e+00   3.203994e+02   -1.034202e+03	2.674709e+04   2.575269e+05   -1.369556e+04   -3.934645e+03
9.636601e+00   3.137716e+02   -1.036493e+03	2.672177e+04   2.583436e+05   -1.388347e+04   -3.888041e+03
9.676153e+00   3.296929e+02   -1.042451e+03	2.669840e+04   2.591781e+05   -1.403120e+04   -4.057586e+03
9.715705e+00   3.468952e+02   -1.040325e+03	2.667028e+04   2.599601e+05   -1.411640e+04   -4.234686e+03
9.755258e+00   3.456780e+02   -1.039799e+03	2.663479e+04   2.606684e+05   -1.428204e+04   -4.246054e+03
9.794810e+00   3.311429e+02   -1.039736e+03	2.658677e+04   2.612528e+05   -1.443270e+04   -4.111236e+03
9.834362e+00   3.214646e+02   -1.036670e+03	2.655301e+04   2.619717e+05   -1.458274e+04   -4.045288e+03
9.873914e+00   3.151615e+02   -1.023558e+03	2.649513e+04   2.624439e+05   -1.476603e+04   -4.004535e+03
9.913466e+00   3.127254e+02   -1.029742e+03	2.645923e+04   2.631412e+05   -1.494344e+04   -3.995450e+03
9.953018e+00   3.122236e+02   -1.026901e+03	2.643999e+04   2.639945e+05   -1.508103e+04   -4.005819e+03
9.992570e+00   2.966683e+02   -1.023359e+03	2.640422e+04   2.646817e+05   -1.523348e+04   -3.872941e+03
1.003212e+01   2.902626e+02   -1.020003e+03	2.636327e+04   2.653141e+05   -1.535124e+04   -3.830452e+03
1.007167e+01   2.929381e+02   -1.015949e+03	2.629196e+04   2.656377e+05   -1.555350e+04   -3.871186e+03
1.011123e+01   3.119058e+02   -1.024642e+03	2.626765e+04   2.664364e+05   -1.571135e+04   -4.068117e+03
1.015078e+01   3.242363e+02   -1.017897e+03	2.622969e+04   2.670864e+05   -1.578147e+04   -4.206680e+03
1.019033e+01   3.208024e+02   -1.029523e+03	2.622214e+04   2.680552e+05   -1.596809e+04   -4.190768e+03
1.022988e+01   3.060414e+02   -1.020994e+03	2.618528e+04   2.687108e+05   -1.613607e+04   -4.068398e+03
1.026944e+01   3.152544e+02   -1.018014e+03	2.614971e+04   2.693797e+05   -1.622903e+04   -4.159927e+03
1.030899e+01   3.024842e+02   -1.010823e+03	2.611341e+04   2.700373e+05   -1.641023e+04   -4.053246e+03
1.034854e+01   3.146278e+02   -1.021714e+03	2.604275e+04   2.703455e+05   -1.652932e+04   -4.200675e+03
1.038809e+01   3.071786e+02   -1.013650e+03	2.601518e+04   2.710850e+05   -1.668818e+04   -4.140977e+03
1.042764e+01   2.829700e+02   -1.007398e+03	2.600537e+04   2.720091e+05   -1.682958e+04   -3.905244e+03
1.046720e+01   2.884557e+02   -1.007447e+03	2.598310e+04   2.728054e+05   -1.693635e+04   -3.977089e+03
1.050675e+01   2.823468e+02   -1.006926e+03	2.595575e+04   2.735455e+05   -1.715099e+04   -3.924902e+03
1.054630e+01   2.746901e+02   -1.004877e+03	2.590422e+04   2.740286e+05   -1.729540e+04   -3.863457e+03
1.058585e+01   2.846129e+02   -1.005010e+03	2.585101e+04   2.744915e+05   -1.740435e+04   -3.987595e+03
1.062540e+01   2.919761e+02   -1.007076e+03	2.583512e+04   2.753460e+05   -1.759268e+04   -4.073975e+03
1.066496e+01   3.008130e+02   -1.008907e+03	2.579372e+04   2.759278e+05   -1.773698e+04   -4.182207e+03
1.070451e+01   3.020979e+02   -1.006512e+03	2.571805e+04   2.761376e+05   -1.786812e+04   -4.213863e+03
1.074406e+01   2.916897e+02   -1.000537e+03	2.565719e+04   2.764985e+05   -1.799725e+04   -4.116578e+03
1.078361e+01   2.791931e+02   -9.944162e+02	2.563659e+04   2.772887e+05   -1.812825e+04   -3.999709e+03
1.082316e+01   2.823554e+02   -9.970970e+02	2.562206e+04   2.781470e+05   -1.830149e+04   -4.052247e+03
1.086272e+01   2.862532e+02   -9.973383e+02	2.557092e+04   2.786060e+05   -1.843692e+04   -4.103558e+03
1.090227e+01   2.588404e+02   -9.934230e+02	2.554724e+04   2.793581e+05   -1.857966e+04   -3.827271e+03
1.094182e+01   2.592540e+02   -9.901001e+02	2.548181e+04   2.796517e+05   -1.866525e+04   -3.841931e+03
1.098137e+01   2.605802e+02   -9.923764e+02	2.545779e+04   2.803976e+05   -1.885155e+04   -3.877918e+03
1.102093e+01   2.674495e+02   -9.852054e+02	2.541801e+04   2.809625e+05   -1.902220e+04   -3.960984e+03
1.106048e+01   2.838096e+02   -9.939313e+02	2.537967e+04   2.815496e+05   -1.916190e+04   -4.161917e+03
1.110003e+01   2.873607e+02   -9.908194e+02	2.534471e+04   2.821645e+05   -1.931344e+04   -4.211526e+03
1.113958e+01   2.772927e+02   -9.848084e+02	2.532948e+04   2.829941e+05   -1.942139e+04   -4.117681e+03
1.117913e+01   2.604986e+02   -9.839745e+02	2.529582e+04   2.836198e+05   -1.957978e+04   -3.949585e+03
1.121869e+01   2.593235e+02   -9.818938e+02	2.525332e+04   2.841428e+05   -1.971059e+04   -3.937345e+03
1.125824e+01   2.518661e+02   -9.819734e+02	2.519617e+04   2.844995e+05   -1.985466e+04   -3.870338e+03
1.129779e+01   2.549786e+02   -9.844711e+02	2.515159e+04   2.849951e+05   -2.003214e+04   -3.936052e+03
1.133734e+01   2.602832e+02   -9.757934e+02	2.512048e+04   2.856323e+05   -2.012971e+04   -3.995532e+03
1.137689e+01   2.451142e+02   -9.743086e+02	2.508128e+04   2.861801e+05   -2.031923e+04   -3.850187e+03
1.141645e+01   2.419931e+02   -9.684881e+02	2.502273e+04   2.865006e+05   -2.041167e+04   -3.822114e+03
1.145600e+01   2.439046e+02   -9.712084e+02	2.496061e+04   2.867810e+05   -2.052920e+04   -3.859468e+03
1.149555e+01   2.660342e+02   -9.764343e+02	2.492827e+04   2.874005e+05   -2.069115e+04   -4.116735e+03
1.153510e+01   2.642458e+02   -9.742491e+02	2.490386e+04   2.881040e+05   -2.084815e+04   -4.114825e+03
1.157466e+01   2.616672e+02   -9.722832e+02	2.484502e+04   2.884074e+05   -2.094949e+04   -4.094707e+03
1.161421e+01   2.496607e+02   -9.674470e+02	2.479690e+04   2.888299e+05   -2.108017e+04   -3.980745e+03
1.165376e+01   2.514599e+02   -9.651052e+02	2.474099e+04   2.891575e+05   -2.118191e+04   -4.009829e+03
1.169331e+01   2.516297e+02   -9.657799e+02	2.472196e+04   2.899150e+05   -2.132378e+04   -4.022018e+03
1.173286e+01   2.609596e+02   -9.634476e+02	2.468697e+04   2.904813e+05   -2.147007e+04   -4.146110e+03
1.177242e+01   2.621419e+02   -9.669196e+02	2.468279e+04   2.914114e+05   -2.161686e+04   -4.174361e+03
1.181197e+01   2.416626e+02   -9.589512e+02	2.464467e+04   2.919334e+05   -2.176294e+04   -3.955310e+03
1.185152e+01   2.485864e+02   -9.647412e+02	2.459419e+04   2.923140e+05   -2.189894e+04   -4.050882e+03
1.189107e+01   2.513225e+02   -9.580477e+02	2.455565e+04   2.928252e+05   -2.208030e+04   -4.093973e+03
1.193062e+01   2.454511e+02   -9.508291e+02	2.445799e+04   2.926285e+05   -2.218613e+04   -4.035664e+03
1.197018e+01   2.484985e+02   -9.539783e+02	2.442654e+04   2.932216e+05   -2.230346e+04   -4.084107e+03
1.200973e+01   2.508747e+02   -9.538994e+02	2.438830e+04   2.937285e+05   -2.239108e+04   -4.125658e+03
1.204928e+01   2.443721e+02   -9.526295e+02	2.435334e+04   2.942730e+05   -2.256515e+04   -4.068694e+03
1.208883e+01   2.380790e+02   -9.468125e+02	2.429415e+04   2.945168e+05   -2.267122e+04   -3.995903e+03
1.212839e+01   2.387181e+02   -9.433981e+02	2.423695e+04   2.947827e+05   -2.278811e+04   -4.018549e+03
1.216794e+01   2.365443e+02   -9.398281e+02	2.419689e+04   2.952527e+05   -2.289558e+04   -4.015404e+03
1.220749e+01   2.339302e+02   -9.439283e+02	2.414870e+04   2.956253e+05   -2.305532e+04   -3.998432e+03
1.224704e+01   2.353670e+02   -9.398928e+02	2.413031e+04   2.963524e+05   -2.317344e+04   -4.015813e+03
1.228659e+01   2.349612e+02   -9.424889e+02	2.411638e+04   2.971383e+05   -2.334804e+04   -4.028762e+03
1.232615e+01   2.315006e+02   -9.383278e+02	2.406564e+04   2.974647e+05   -2.348703e+04   -3.999942e+03
1.236570e+01   2.298807e+02   -9.394541e+02	2.401460e+04   2.977875e+05   -2.360971e+04   -3.995593e+03
1.240525e+01   2.163119e+02   -9.339097e+02	2.399184e+04   2.984516e+05   -2.370980e+04   -3.838147e+03
1.244480e+01   2.251189e+02   -9.307451e+02	2.394807e+04   2.988541e+05   -2.380650e+04   -3.952570e+03
1.248435e+01   2.259571e+02   -9.326916e+02	2.388641e+04   2.990342e+05   -2.391364e+04   -3.981266e+03
1.252391e+01   2.252955e+02   -9.375050e+02	2.383732e+04   2.993685e+05   -2.404695e+04   -3.996307e+03
1.256346e+01   2.315788e+02   -9.312867e+02	2.381448e+04   3.000199e+05   -2.414435e+04   -4.076370e+03
1.260301e+01   2.189301e+02   -9.241765e+02	2.376275e+04   3.003064e+05   -2.426359e+04   -3.935250e+03
1.264256e+01   2.047742e+02   -9.206896e+02	2.374020e+04   3.009593e+05   -2.442502e+04   -3.774717e+03
1.268211e+01   2.162474e+02   -9.226211e+02	2.365060e+04   3.007646e+05   -2.453830e+04   -3.922066e+03
1.272167e+01   2.311689e+02   -9.206214e+02	2.358068e+04   3.008096e+05   -2.463064e+04   -4.114564e+03
1.276122e+01   2.183213e+02   -9.218007e+02	2.352758e+04   3.010674e+05   -2.477501e+04   -3.975034e+03
1.280077e+01   2.208674e+02   -9.131966e+02	2.349337e+04   3.015532e+05   -2.486375e+04   -4.009564e+03
1.284032e+01   2.125364e+02   -9.157007e+02	2.345165e+04   3.019504e+05   -2.498672e+04   -3.921084e+03
1.287988e+01   2.016485e+02   -9.108210e+02	2.340316e+04   3.022515e+05   -2.511013e+04   -3.794753e+03
1.291943e+01   2.114976e+02   -9.071869e+02	2.335890e+04   3.026022e+05   -2.520358e+04   -3.931380e+03
1.295898e+01   2.117043e+02   -9.089544e+02	2.333576e+04   3.032287e+05   -2.536895e+04   -3.943275e+03
1.299853e+01   2.087668e+02   -9.073385e+02	2.329072e+04   3.035662e+05   -2.548063e+04   -3.920405e+03
1.303808e+01   2.035248e+02   -9.015426e+02	2.325416e+04   3.040070e+05   -2.561309e+04   -3.862350e+03
1.307764e+01   2.055904e+02   -9.041338e+02	2.323066e+04   3.046224e+05   -2.572772e+04   -3.900466e+03
1.311719e+01   2.134953e+02   -9.060562e+02	2.319305e+04   3.050495e+05   -2.582670e+04   -4.017638e+03
1.315674e+01   2.206487e+02   -9.035932e+02	2.311881e+04   3.049891e+05   -2.590017e+04   -4.127310e+03
1.319629e+01   2.272178e+02   -9.035347e+02	2.308424e+04   3.054479e+05   -2.601693e+04   -4.222555e+03